/*--------------------------------*- C++ -*----------------------------------*\
| =========                 |                                                 |
| \\      /  F ield         | OpenFOAM: The Open Source CFD Toolbox           |
|  \\    /   O peration     | Version:  v1912                                 |
|   \\  /    A nd           | Website:  www.openfoam.com                      |
|    \\/     M anipulation  |                                                 |
\*---------------------------------------------------------------------------*/
FoamFile
{
    version     2.0;
    format      ascii;
    class       volVectorField;
    location    "1000";
    object      C;
}
// * * * * * * * * * * * * * * * * * * * * * * * * * * * * * * * * * * * * * //

dimensions      [0 1 0 0 0 0 0];


internalField   nonuniform List<vector> 
9900
(
(-19.6415 -0.617251 0.025)
(-19.564 -1.84935 0.025)
(-19.4093 -3.07412 0.025)
(-19.178 -4.28681 0.025)
(-18.871 -5.4825 0.025)
(-18.4895 -6.65662 0.025)
(-18.035 -7.80445 0.025)
(-17.5094 -8.92148 0.025)
(-16.9146 -10.0033 0.025)
(-16.2532 -11.0456 0.025)
(-15.5275 -12.0444 0.025)
(-14.7406 -12.9956 0.025)
(-13.8955 -13.8955 0.025)
(-12.9956 -14.7406 0.025)
(-12.0444 -15.5275 0.025)
(-11.0456 -16.2532 0.025)
(-10.0033 -16.9146 0.025)
(-8.92148 -17.5094 0.025)
(-7.80445 -18.035 0.025)
(-6.65662 -18.4895 0.025)
(-5.4825 -18.871 0.025)
(-4.28681 -19.178 0.025)
(-3.07412 -19.4093 0.025)
(-1.84935 -19.564 0.025)
(-0.617251 -19.6415 0.025)
(-18.9716 -0.596223 0.025)
(-18.8967 -1.78627 0.025)
(-18.7473 -2.96928 0.025)
(-18.5239 -4.14056 0.025)
(-18.2273 -5.29555 0.025)
(-17.8589 -6.42957 0.025)
(-17.4199 -7.53826 0.025)
(-16.9122 -8.61718 0.025)
(-16.3377 -9.66212 0.025)
(-15.6988 -10.6689 0.025)
(-14.9979 -11.6336 0.025)
(-14.2378 -12.5523 0.025)
(-13.4216 -13.4216 0.025)
(-12.5523 -14.2378 0.025)
(-11.6336 -14.9979 0.025)
(-10.6689 -15.6988 0.025)
(-9.66212 -16.3377 0.025)
(-8.61718 -16.9122 0.025)
(-7.53826 -17.4199 0.025)
(-6.42957 -17.8589 0.025)
(-5.29555 -18.2273 0.025)
(-4.14056 -18.5239 0.025)
(-2.96928 -18.7473 0.025)
(-1.78627 -18.8967 0.025)
(-0.596223 -18.9716 0.025)
(-18.3244 -0.575862 0.025)
(-18.252 -1.72534 0.025)
(-18.1077 -2.86798 0.025)
(-17.8919 -3.99929 0.025)
(-17.6055 -5.11485 0.025)
(-17.2496 -6.21022 0.025)
(-16.8256 -7.28107 0.025)
(-16.3352 -8.32319 0.025)
(-15.7803 -9.33246 0.025)
(-15.1632 -10.3049 0.025)
(-14.4862 -11.2367 0.025)
(-13.7521 -12.1241 0.025)
(-12.9637 -12.9637 0.025)
(-12.1241 -13.7521 0.025)
(-11.2367 -14.4862 0.025)
(-10.3049 -15.1632 0.025)
(-9.33246 -15.7803 0.025)
(-8.32319 -16.3352 0.025)
(-7.28107 -16.8256 0.025)
(-6.21022 -17.2496 0.025)
(-5.11485 -17.6055 0.025)
(-3.99929 -17.8919 0.025)
(-2.86798 -18.1077 0.025)
(-1.72534 -18.252 0.025)
(-0.575862 -18.3244 0.025)
(-17.699 -0.556216 0.025)
(-17.6291 -1.66644 0.025)
(-17.4897 -2.77009 0.025)
(-17.2813 -3.86283 0.025)
(-17.0046 -4.94029 0.025)
(-16.6609 -5.99827 0.025)
(-16.2513 -7.03258 0.025)
(-15.7777 -8.03914 0.025)
(-15.2418 -9.01396 0.025)
(-14.6457 -9.9532 0.025)
(-13.9918 -10.8532 0.025)
(-13.2828 -11.7103 0.025)
(-12.5213 -12.5213 0.025)
(-11.7103 -13.2828 0.025)
(-10.8532 -13.9918 0.025)
(-9.9532 -14.6457 0.025)
(-9.01396 -15.2418 0.025)
(-8.03914 -15.7777 0.025)
(-7.03258 -16.2513 0.025)
(-5.99827 -16.6609 0.025)
(-4.94029 -17.0046 0.025)
(-3.86283 -17.2813 0.025)
(-2.77009 -17.4897 0.025)
(-1.66644 -17.6291 0.025)
(-0.556216 -17.699 0.025)
(-17.0947 -0.53722 0.025)
(-17.0272 -1.60955 0.025)
(-16.8926 -2.67553 0.025)
(-16.6913 -3.73094 0.025)
(-16.4241 -4.77164 0.025)
(-16.092 -5.79349 0.025)
(-15.6965 -6.7925 0.025)
(-15.239 -7.76468 0.025)
(-14.7214 -8.70624 0.025)
(-14.1457 -9.61339 0.025)
(-13.5141 -10.4827 0.025)
(-12.8293 -11.3105 0.025)
(-12.0938 -12.0938 0.025)
(-11.3105 -12.8293 0.025)
(-10.4827 -13.5141 0.025)
(-9.61339 -14.1457 0.025)
(-8.70624 -14.7214 0.025)
(-7.76468 -15.239 0.025)
(-6.7925 -15.6965 0.025)
(-5.79349 -16.092 0.025)
(-4.77164 -16.4241 0.025)
(-3.73094 -16.6913 0.025)
(-2.67553 -16.8926 0.025)
(-1.60955 -17.0272 0.025)
(-0.53722 -17.0947 0.025)
(-16.5109 -0.518867 0.025)
(-16.4458 -1.55458 0.025)
(-16.3157 -2.58416 0.025)
(-16.1212 -3.60352 0.025)
(-15.8632 -4.60867 0.025)
(-15.5425 -5.59566 0.025)
(-15.1605 -6.56051 0.025)
(-14.7186 -7.49951 0.025)
(-14.2187 -8.40889 0.025)
(-13.6626 -9.28511 0.025)
(-13.0526 -10.1247 0.025)
(-12.3911 -10.9243 0.025)
(-11.6807 -11.6807 0.025)
(-10.9243 -12.3911 0.025)
(-10.1247 -13.0526 0.025)
(-9.28511 -13.6626 0.025)
(-8.40889 -14.2187 0.025)
(-7.49951 -14.7186 0.025)
(-6.56051 -15.1605 0.025)
(-5.59566 -15.5425 0.025)
(-4.60867 -15.8632 0.025)
(-3.60352 -16.1212 0.025)
(-2.58416 -16.3157 0.025)
(-1.55458 -16.4458 0.025)
(-0.518867 -16.5109 0.025)
(-15.9469 -0.501165 0.025)
(-15.8839 -1.50147 0.025)
(-15.7583 -2.49587 0.025)
(-15.5705 -3.48042 0.025)
(-15.3213 -4.45124 0.025)
(-15.0115 -5.40448 0.025)
(-14.6425 -6.3364 0.025)
(-14.2158 -7.24331 0.025)
(-13.7329 -8.12162 0.025)
(-13.1959 -8.9679 0.025)
(-12.6067 -9.77879 0.025)
(-11.9678 -10.5511 0.025)
(-11.2817 -11.2817 0.025)
(-10.5511 -11.9678 0.025)
(-9.77879 -12.6067 0.025)
(-8.9679 -13.1959 0.025)
(-8.12162 -13.7329 0.025)
(-7.24331 -14.2158 0.025)
(-6.3364 -14.6425 0.025)
(-5.40448 -15.0115 0.025)
(-4.45124 -15.3213 0.025)
(-3.48042 -15.5705 0.025)
(-2.49587 -15.7583 0.025)
(-1.50147 -15.8839 0.025)
(-0.501165 -15.9469 0.025)
(-15.4019 -0.484018 0.025)
(-15.3411 -1.45016 0.025)
(-15.2198 -2.41059 0.025)
(-15.0384 -3.36148 0.025)
(-14.7976 -4.29911 0.025)
(-14.4985 -5.21977 0.025)
(-14.1421 -6.11985 0.025)
(-13.73 -6.99577 0.025)
(-13.2636 -7.84408 0.025)
(-12.7449 -8.66143 0.025)
(-12.1759 -9.44459 0.025)
(-11.5588 -10.1905 0.025)
(-10.8962 -10.8962 0.025)
(-10.1905 -11.5588 0.025)
(-9.44459 -12.1759 0.025)
(-8.66143 -12.7449 0.025)
(-7.84408 -13.2636 0.025)
(-6.99577 -13.73 0.025)
(-6.11985 -14.1421 0.025)
(-5.21977 -14.4985 0.025)
(-4.29911 -14.7976 0.025)
(-3.36148 -15.0384 0.025)
(-2.41059 -15.2198 0.025)
(-1.45016 -15.3411 0.025)
(-0.484018 -15.4019 0.025)
(-14.8753 -0.46748 0.025)
(-14.8166 -1.40059 0.025)
(-14.6995 -2.32816 0.025)
(-14.5242 -3.24655 0.025)
(-14.2917 -4.15213 0.025)
(-14.0028 -5.04133 0.025)
(-13.6587 -5.91063 0.025)
(-13.2606 -6.7566 0.025)
(-12.8102 -7.57591 0.025)
(-12.3092 -8.3653 0.025)
(-11.7597 -9.12171 0.025)
(-11.1637 -9.8421 0.025)
(-10.5237 -10.5237 0.025)
(-9.8421 -11.1637 0.025)
(-9.12171 -11.7597 0.025)
(-8.3653 -12.3092 0.025)
(-7.57591 -12.8102 0.025)
(-6.7566 -13.2606 0.025)
(-5.91063 -13.6587 0.025)
(-5.04133 -14.0028 0.025)
(-4.15213 -14.2917 0.025)
(-3.24655 -14.5242 0.025)
(-2.32816 -14.6995 0.025)
(-1.40059 -14.8166 0.025)
(-0.46748 -14.8753 0.025)
(-14.3666 -0.451487 0.025)
(-14.3099 -1.35268 0.025)
(-14.1967 -2.24854 0.025)
(-14.0275 -3.13552 0.025)
(-13.8029 -4.01013 0.025)
(-13.5239 -4.86892 0.025)
(-13.1915 -5.70848 0.025)
(-12.807 -6.52552 0.025)
(-12.372 -7.31679 0.025)
(-11.8882 -8.07921 0.025)
(-11.3575 -8.80973 0.025)
(-10.7819 -9.50548 0.025)
(-10.1637 -10.1637 0.025)
(-9.50548 -10.7819 0.025)
(-8.80973 -11.3575 0.025)
(-8.07921 -11.8882 0.025)
(-7.31679 -12.372 0.025)
(-6.52552 -12.807 0.025)
(-5.70848 -13.1915 0.025)
(-4.86892 -13.5239 0.025)
(-4.01013 -13.8029 0.025)
(-3.13552 -14.0275 0.025)
(-2.24854 -14.1967 0.025)
(-1.35268 -14.3099 0.025)
(-0.451487 -14.3666 0.025)
(-13.8751 -0.436034 0.025)
(-13.8203 -1.30641 0.025)
(-13.711 -2.1716 0.025)
(-13.5476 -3.02825 0.025)
(-13.3307 -3.87294 0.025)
(-13.0612 -4.70232 0.025)
(-12.7402 -5.51316 0.025)
(-12.3689 -6.30225 0.025)
(-11.9487 -7.06645 0.025)
(-11.4815 -7.80279 0.025)
(-10.9689 -8.50832 0.025)
(-10.413 -9.18026 0.025)
(-9.81599 -9.81599 0.025)
(-9.18026 -10.413 0.025)
(-8.50832 -10.9689 0.025)
(-7.80279 -11.4815 0.025)
(-7.06645 -11.9487 0.025)
(-6.30225 -12.3689 0.025)
(-5.51316 -12.7402 0.025)
(-4.70232 -13.0612 0.025)
(-3.87294 -13.3307 0.025)
(-3.02825 -13.5476 0.025)
(-2.1716 -13.711 0.025)
(-1.30641 -13.8203 0.025)
(-0.436034 -13.8751 0.025)
(-13.4001 -0.421119 0.025)
(-13.3473 -1.26168 0.025)
(-13.2417 -2.09728 0.025)
(-13.0839 -2.92459 0.025)
(-12.8744 -3.74036 0.025)
(-12.6141 -4.54137 0.025)
(-12.3041 -5.32447 0.025)
(-11.9455 -6.08654 0.025)
(-11.5397 -6.82459 0.025)
(-11.0885 -7.5357 0.025)
(-10.5934 -8.2171 0.025)
(-10.0565 -8.86604 0.025)
(-9.48 -9.48 0.025)
(-8.86604 -10.0565 0.025)
(-8.2171 -10.5934 0.025)
(-7.5357 -11.0885 0.025)
(-6.82459 -11.5397 0.025)
(-6.08654 -11.9455 0.025)
(-5.32447 -12.3041 0.025)
(-4.54137 -12.6141 0.025)
(-3.74036 -12.8744 0.025)
(-2.92459 -13.0839 0.025)
(-2.09728 -13.2417 0.025)
(-1.26168 -13.3473 0.025)
(-0.421119 -13.4001 0.025)
(-12.9412 -0.406694 0.025)
(-12.8902 -1.21848 0.025)
(-12.7882 -2.02546 0.025)
(-12.6358 -2.82444 0.025)
(-12.4335 -3.61228 0.025)
(-12.1822 -4.38586 0.025)
(-11.8828 -5.14213 0.025)
(-11.5364 -5.87811 0.025)
(-11.1446 -6.59089 0.025)
(-10.7088 -7.27766 0.025)
(-10.2307 -7.9357 0.025)
(-9.71216 -8.56244 0.025)
(-9.15537 -9.15537 0.025)
(-8.56244 -9.71216 0.025)
(-7.9357 -10.2307 0.025)
(-7.27766 -10.7088 0.025)
(-6.59089 -11.1446 0.025)
(-5.87811 -11.5364 0.025)
(-5.14213 -11.8828 0.025)
(-4.38586 -12.1822 0.025)
(-3.61228 -12.4335 0.025)
(-2.82444 -12.6358 0.025)
(-2.02546 -12.7882 0.025)
(-1.21848 -12.8902 0.025)
(-0.406694 -12.9412 0.025)
(-12.4979 -0.392757 0.025)
(-12.4486 -1.17675 0.025)
(-12.3501 -1.95607 0.025)
(-12.2029 -2.72768 0.025)
(-12.0076 -3.48852 0.025)
(-11.7648 -4.23562 0.025)
(-11.4757 -4.96597 0.025)
(-11.1412 -5.67674 0.025)
(-10.7628 -6.36509 0.025)
(-10.3419 -7.02834 0.025)
(-9.88017 -7.66384 0.025)
(-9.37946 -8.2691 0.025)
(-8.84173 -8.84173 0.025)
(-8.2691 -9.37946 0.025)
(-7.66384 -9.88017 0.025)
(-7.02834 -10.3419 0.025)
(-6.36509 -10.7628 0.025)
(-5.67674 -11.1412 0.025)
(-4.96597 -11.4757 0.025)
(-4.23562 -11.7648 0.025)
(-3.48852 -12.0076 0.025)
(-2.72768 -12.2029 0.025)
(-1.95607 -12.3501 0.025)
(-1.17675 -12.4486 0.025)
(-0.392757 -12.4979 0.025)
(-12.0696 -0.379306 0.025)
(-12.0219 -1.1364 0.025)
(-11.9268 -1.88903 0.025)
(-11.7847 -2.63419 0.025)
(-11.596 -3.36897 0.025)
(-11.3616 -4.09042 0.025)
(-11.0824 -4.79578 0.025)
(-10.7594 -5.48216 0.025)
(-10.3939 -6.14695 0.025)
(-9.98743 -6.78745 0.025)
(-9.54154 -7.40118 0.025)
(-9.05798 -7.98569 0.025)
(-8.53869 -8.53869 0.025)
(-7.98569 -9.05798 0.025)
(-7.40118 -9.54154 0.025)
(-6.78745 -9.98743 0.025)
(-6.14695 -10.3939 0.025)
(-5.48216 -10.7594 0.025)
(-4.79578 -11.0824 0.025)
(-4.09042 -11.3616 0.025)
(-3.36897 -11.596 0.025)
(-2.63419 -11.7847 0.025)
(-1.88903 -11.9268 0.025)
(-1.1364 -12.0219 0.025)
(-0.379306 -12.0696 0.025)
(-11.6557 -0.366296 0.025)
(-11.6097 -1.09744 0.025)
(-11.5179 -1.82425 0.025)
(-11.3806 -2.54386 0.025)
(-11.1984 -3.25343 0.025)
(-10.972 -3.9502 0.025)
(-10.7024 -4.6313 0.025)
(-10.3904 -5.2942 0.025)
(-10.0375 -5.93616 0.025)
(-9.64495 -6.55471 0.025)
(-9.21436 -7.14739 0.025)
(-8.74738 -7.71186 0.025)
(-8.24589 -8.24589 0.025)
(-7.71186 -8.74738 0.025)
(-7.14739 -9.21436 0.025)
(-6.55471 -9.64495 0.025)
(-5.93616 -10.0375 0.025)
(-5.2942 -10.3904 0.025)
(-4.6313 -10.7024 0.025)
(-3.9502 -10.972 0.025)
(-3.25343 -11.1984 0.025)
(-2.54386 -11.3806 0.025)
(-1.82425 -11.5179 0.025)
(-1.09744 -11.6097 0.025)
(-0.366296 -11.6557 0.025)
(-11.2558 -0.353725 0.025)
(-11.2114 -1.05979 0.025)
(-11.1227 -1.76165 0.025)
(-10.9902 -2.45661 0.025)
(-10.8143 -3.14183 0.025)
(-10.5956 -3.81466 0.025)
(-10.3352 -4.47245 0.025)
(-10.034 -5.11255 0.025)
(-9.69313 -5.73252 0.025)
(-9.31407 -6.32984 0.025)
(-8.89824 -6.90218 0.025)
(-8.44729 -7.44729 0.025)
(-7.963 -7.963 0.025)
(-7.44729 -8.44729 0.025)
(-6.90218 -8.89824 0.025)
(-6.32984 -9.31407 0.025)
(-5.73252 -9.69313 0.025)
(-5.11255 -10.034 0.025)
(-4.47245 -10.3352 0.025)
(-3.81466 -10.5956 0.025)
(-3.14183 -10.8143 0.025)
(-2.45661 -10.9902 0.025)
(-1.76165 -11.1227 0.025)
(-1.05979 -11.2114 0.025)
(-0.353725 -11.2558 0.025)
(-10.8695 -0.341594 0.025)
(-10.8266 -1.02341 0.025)
(-10.741 -1.70121 0.025)
(-10.613 -2.37227 0.025)
(-10.4431 -3.03399 0.025)
(-10.2319 -3.68371 0.025)
(-9.98042 -4.31892 0.025)
(-9.68954 -4.93708 0.025)
(-9.36043 -5.53575 0.025)
(-8.99437 -6.11257 0.025)
(-8.59281 -6.66527 0.025)
(-8.15734 -7.19166 0.025)
(-7.68968 -7.68968 0.025)
(-7.19166 -8.15734 0.025)
(-6.66527 -8.59281 0.025)
(-6.11257 -8.99437 0.025)
(-5.53575 -9.36043 0.025)
(-4.93708 -9.68954 0.025)
(-4.31892 -9.98042 0.025)
(-3.68371 -10.2319 0.025)
(-3.03399 -10.4431 0.025)
(-2.37227 -10.613 0.025)
(-1.70121 -10.741 0.025)
(-1.02341 -10.8266 0.025)
(-0.341594 -10.8695 0.025)
(-10.4962 -0.32986 0.025)
(-10.4548 -0.988264 0.025)
(-10.3721 -1.64278 0.025)
(-10.2485 -2.29081 0.025)
(-10.0844 -2.92978 0.025)
(-9.88054 -3.55721 0.025)
(-9.63769 -4.1706 0.025)
(-9.35679 -4.76753 0.025)
(-9.03897 -5.34564 0.025)
(-8.68548 -5.90265 0.025)
(-8.29771 -6.43637 0.025)
(-7.8772 -6.94468 0.025)
(-7.42559 -7.42559 0.025)
(-6.94468 -7.8772 0.025)
(-6.43637 -8.29771 0.025)
(-5.90265 -8.68548 0.025)
(-5.34564 -9.03897 0.025)
(-4.76753 -9.35679 0.025)
(-4.1706 -9.63769 0.025)
(-3.55721 -9.88054 0.025)
(-2.92978 -10.0844 0.025)
(-2.29081 -10.2485 0.025)
(-1.64278 -10.3721 0.025)
(-0.988264 -10.4548 0.025)
(-0.32986 -10.4962 0.025)
(-10.1355 -0.318518 0.025)
(-10.0955 -0.954312 0.025)
(-10.0157 -1.58633 0.025)
(-9.89633 -2.21208 0.025)
(-9.73789 -2.82912 0.025)
(-9.54104 -3.43498 0.025)
(-9.30653 -4.02729 0.025)
(-9.03529 -4.60371 0.025)
(-8.72839 -5.16195 0.025)
(-8.38704 -5.69983 0.025)
(-8.0126 -6.21521 0.025)
(-7.60653 -6.70605 0.025)
(-7.17044 -7.17044 0.025)
(-6.70605 -7.60653 0.025)
(-6.21521 -8.0126 0.025)
(-5.69983 -8.38704 0.025)
(-5.16195 -8.72839 0.025)
(-4.60371 -9.03529 0.025)
(-4.02729 -9.30653 0.025)
(-3.43498 -9.54104 0.025)
(-2.82912 -9.73789 0.025)
(-2.21208 -9.89633 0.025)
(-1.58633 -10.0157 0.025)
(-0.954312 -10.0955 0.025)
(-0.318518 -10.1355 0.025)
(-9.78707 -0.307572 0.025)
(-9.74844 -0.9215 0.025)
(-9.67134 -1.53179 0.025)
(-9.55608 -2.13603 0.025)
(-9.4031 -2.73185 0.025)
(-9.21301 -3.31689 0.025)
(-8.98656 -3.88883 0.025)
(-8.72465 -4.44543 0.025)
(-8.4283 -4.98448 0.025)
(-8.09869 -5.50386 0.025)
(-7.73712 -6.00152 0.025)
(-7.34501 -6.4755 0.025)
(-6.92392 -6.92392 0.025)
(-6.4755 -7.34501 0.025)
(-6.00152 -7.73712 0.025)
(-5.50386 -8.09869 0.025)
(-4.98448 -8.4283 0.025)
(-4.44543 -8.72465 0.025)
(-3.88883 -8.98656 0.025)
(-3.31689 -9.21301 0.025)
(-2.73185 -9.4031 0.025)
(-2.13603 -9.55608 0.025)
(-1.53179 -9.67134 0.025)
(-0.9215 -9.74844 0.025)
(-0.307572 -9.78707 0.025)
(-9.45039 -0.296989 0.025)
(-9.41309 -0.889798 0.025)
(-9.33864 -1.47909 0.025)
(-9.22734 -2.06256 0.025)
(-9.07963 -2.63788 0.025)
(-8.89608 -3.20278 0.025)
(-8.67742 -3.75506 0.025)
(-8.42451 -4.2925 0.025)
(-8.13836 -4.81301 0.025)
(-7.82009 -5.31453 0.025)
(-7.47096 -5.79507 0.025)
(-7.09234 -6.25274 0.025)
(-6.68573 -6.68573 0.025)
(-6.25274 -7.09234 0.025)
(-5.79507 -7.47096 0.025)
(-5.31453 -7.82009 0.025)
(-4.81301 -8.13836 0.025)
(-4.2925 -8.42451 0.025)
(-3.75506 -8.67742 0.025)
(-3.20278 -8.89608 0.025)
(-2.63788 -9.07963 0.025)
(-2.06256 -9.22734 0.025)
(-1.47909 -9.33864 0.025)
(-0.889798 -9.41309 0.025)
(-0.296989 -9.45039 0.025)
(-9.12509 -0.286768 0.025)
(-9.08908 -0.859171 0.025)
(-9.01719 -1.42818 0.025)
(-8.90973 -1.99156 0.025)
(-8.76709 -2.54708 0.025)
(-8.58986 -3.09254 0.025)
(-8.37873 -3.6258 0.025)
(-8.13453 -4.14475 0.025)
(-7.85823 -4.64734 0.025)
(-7.55091 -5.13159 0.025)
(-7.21379 -5.59559 0.025)
(-6.84821 -6.03751 0.025)
(-6.4556 -6.4556 0.025)
(-6.03751 -6.84821 0.025)
(-5.59559 -7.21379 0.025)
(-5.13159 -7.55091 0.025)
(-4.64734 -7.85823 0.025)
(-4.14475 -8.13453 0.025)
(-3.6258 -8.37873 0.025)
(-3.09254 -8.58986 0.025)
(-2.54708 -8.76709 0.025)
(-1.99156 -8.90973 0.025)
(-1.42818 -9.01719 0.025)
(-0.859171 -9.08908 0.025)
(-0.286768 -9.12509 0.025)
(-8.81079 -0.27689 0.025)
(-8.77602 -0.829579 0.025)
(-8.70662 -1.37899 0.025)
(-8.60285 -1.92296 0.025)
(-8.46513 -2.45935 0.025)
(-8.294 -2.98603 0.025)
(-8.09014 -3.50092 0.025)
(-7.85435 -4.00199 0.025)
(-7.58756 -4.48727 0.025)
(-7.29083 -4.95485 0.025)
(-6.96533 -5.40287 0.025)
(-6.61234 -5.82956 0.025)
(-6.23325 -6.23325 0.025)
(-5.82956 -6.61234 0.025)
(-5.40287 -6.96533 0.025)
(-4.95485 -7.29083 0.025)
(-4.48727 -7.58756 0.025)
(-4.00199 -7.85435 0.025)
(-3.50092 -8.09014 0.025)
(-2.98603 -8.294 0.025)
(-2.45935 -8.46513 0.025)
(-1.92296 -8.60285 0.025)
(-1.37899 -8.70662 0.025)
(-0.829579 -8.77602 0.025)
(-0.27689 -8.81079 0.025)
(-8.50712 -0.267347 0.025)
(-8.47355 -0.800987 0.025)
(-8.40654 -1.33146 0.025)
(-8.30635 -1.85669 0.025)
(-8.17337 -2.37459 0.025)
(-8.00814 -2.88311 0.025)
(-7.81131 -3.38026 0.025)
(-7.58365 -3.86406 0.025)
(-7.32606 -4.33262 0.025)
(-7.03955 -4.78408 0.025)
(-6.72527 -5.21665 0.025)
(-6.38444 -5.62864 0.025)
(-6.01841 -6.01841 0.025)
(-5.62864 -6.38444 0.025)
(-5.21665 -6.72527 0.025)
(-4.78408 -7.03955 0.025)
(-4.33262 -7.32606 0.025)
(-3.86406 -7.58365 0.025)
(-3.38026 -7.81131 0.025)
(-2.88311 -8.00814 0.025)
(-2.37459 -8.17337 0.025)
(-1.85669 -8.30635 0.025)
(-1.33146 -8.40654 0.025)
(-0.800987 -8.47355 0.025)
(-0.267347 -8.50712 0.025)
(-8.21373 -0.258125 0.025)
(-8.18131 -0.773363 0.025)
(-8.11661 -1.28555 0.025)
(-8.01987 -1.79265 0.025)
(-7.89149 -2.29269 0.025)
(-7.73195 -2.78368 0.025)
(-7.54191 -3.26368 0.025)
(-7.3221 -3.7308 0.025)
(-7.07339 -4.18319 0.025)
(-6.79677 -4.61908 0.025)
(-6.49332 -5.03674 0.025)
(-6.16425 -5.43452 0.025)
(-5.81085 -5.81085 0.025)
(-5.43452 -6.16425 0.025)
(-5.03674 -6.49332 0.025)
(-4.61908 -6.79677 0.025)
(-4.18319 -7.07339 0.025)
(-3.7308 -7.3221 0.025)
(-3.26368 -7.54191 0.025)
(-2.78368 -7.73195 0.025)
(-2.29269 -7.89149 0.025)
(-1.79265 -8.01987 0.025)
(-1.28555 -8.11661 0.025)
(-0.773363 -8.18131 0.025)
(-0.258125 -8.21373 0.025)
(-7.93025 -0.249218 0.025)
(-7.89896 -0.746672 0.025)
(-7.83649 -1.24118 0.025)
(-7.74309 -1.73078 0.025)
(-7.61913 -2.21356 0.025)
(-7.4651 -2.68761 0.025)
(-7.28162 -3.15104 0.025)
(-7.06939 -3.60204 0.025)
(-6.82927 -4.03882 0.025)
(-6.5622 -4.45966 0.025)
(-6.26922 -4.86291 0.025)
(-5.95151 -5.24696 0.025)
(-5.6103 -5.6103 0.025)
(-5.24696 -5.95151 0.025)
(-4.86291 -6.26922 0.025)
(-4.45966 -6.5622 0.025)
(-4.03882 -6.82927 0.025)
(-3.60204 -7.06939 0.025)
(-3.15104 -7.28162 0.025)
(-2.68761 -7.4651 0.025)
(-2.21356 -7.61913 0.025)
(-1.73078 -7.74309 0.025)
(-1.24118 -7.83649 0.025)
(-0.746672 -7.89896 0.025)
(-0.249218 -7.93025 0.025)
(-7.65636 -0.240613 0.025)
(-7.62615 -0.720884 0.025)
(-7.56583 -1.19831 0.025)
(-7.47566 -1.67101 0.025)
(-7.35599 -2.13711 0.025)
(-7.20728 -2.59478 0.025)
(-7.03013 -3.04221 0.025)
(-6.82524 -3.47763 0.025)
(-6.59341 -3.89933 0.025)
(-6.33555 -4.30564 0.025)
(-6.0527 -4.69496 0.025)
(-5.74596 -5.06574 0.025)
(-5.41654 -5.41654 0.025)
(-5.06574 -5.74596 0.025)
(-4.69496 -6.0527 0.025)
(-4.30564 -6.33555 0.025)
(-3.89933 -6.59341 0.025)
(-3.47763 -6.82524 0.025)
(-3.04221 -7.03013 0.025)
(-2.59478 -7.20728 0.025)
(-2.13711 -7.35599 0.025)
(-1.67101 -7.47566 0.025)
(-1.19831 -7.56583 0.025)
(-0.720884 -7.62615 0.025)
(-0.240613 -7.65636 0.025)
(-7.39174 -0.232294 0.025)
(-7.36256 -0.695967 0.025)
(-7.30434 -1.1569 0.025)
(-7.21728 -1.61325 0.025)
(-7.10174 -2.06325 0.025)
(-6.95817 -2.5051 0.025)
(-6.78715 -2.93706 0.025)
(-6.58933 -3.35743 0.025)
(-6.36552 -3.76456 0.025)
(-6.11658 -4.15682 0.025)
(-5.8435 -4.53268 0.025)
(-5.54736 -4.89065 0.025)
(-5.22933 -5.22933 0.025)
(-4.89065 -5.54736 0.025)
(-4.53268 -5.8435 0.025)
(-4.15682 -6.11658 0.025)
(-3.76456 -6.36552 0.025)
(-3.35743 -6.58933 0.025)
(-2.93706 -6.78715 0.025)
(-2.5051 -6.95817 0.025)
(-2.06325 -7.10174 0.025)
(-1.61325 -7.21728 0.025)
(-1.1569 -7.30434 0.025)
(-0.695967 -7.36256 0.025)
(-0.232294 -7.39174 0.025)
(-7.13606 -0.224259 0.025)
(-7.10789 -0.671895 0.025)
(-7.05168 -1.11687 0.025)
(-6.96763 -1.55745 0.025)
(-6.85609 -1.99188 0.025)
(-6.71749 -2.41844 0.025)
(-6.55238 -2.83547 0.025)
(-6.36141 -3.2413 0.025)
(-6.14533 -3.63434 0.025)
(-5.905 -4.01304 0.025)
(-5.64137 -4.3759 0.025)
(-5.35548 -4.72149 0.025)
(-5.04844 -5.04844 0.025)
(-4.72149 -5.35548 0.025)
(-4.3759 -5.64137 0.025)
(-4.01304 -5.905 0.025)
(-3.63434 -6.14533 0.025)
(-3.2413 -6.36141 0.025)
(-2.83547 -6.55238 0.025)
(-2.41844 -6.71749 0.025)
(-1.99188 -6.85609 0.025)
(-1.55745 -6.96763 0.025)
(-1.11687 -7.05168 0.025)
(-0.671895 -7.10789 0.025)
(-0.224259 -7.13606 0.025)
(-6.88902 -0.216498 0.025)
(-6.86183 -0.648633 0.025)
(-6.80756 -1.07821 0.025)
(-6.72643 -1.50353 0.025)
(-6.61875 -1.92292 0.025)
(-6.48495 -2.33473 0.025)
(-6.32555 -2.73731 0.025)
(-6.14119 -3.12909 0.025)
(-5.9326 -3.50853 0.025)
(-5.70059 -3.87412 0.025)
(-5.44608 -4.22442 0.025)
(-5.17008 -4.55804 0.025)
(-4.87368 -4.87368 0.025)
(-4.55804 -5.17008 0.025)
(-4.22442 -5.44608 0.025)
(-3.87412 -5.70059 0.025)
(-3.50853 -5.9326 0.025)
(-3.12909 -6.14119 0.025)
(-2.73731 -6.32555 0.025)
(-2.33473 -6.48495 0.025)
(-1.92292 -6.61875 0.025)
(-1.50353 -6.72643 0.025)
(-1.07821 -6.80756 0.025)
(-0.648633 -6.86183 0.025)
(-0.216498 -6.88902 0.025)
(-6.65034 -0.208996 0.025)
(-6.62409 -0.626161 0.025)
(-6.57171 -1.04086 0.025)
(-6.49339 -1.45144 0.025)
(-6.38943 -1.8563 0.025)
(-6.26027 -2.25383 0.025)
(-6.10639 -2.64247 0.025)
(-5.92842 -3.02068 0.025)
(-5.72705 -3.38697 0.025)
(-5.50308 -3.73989 0.025)
(-5.2574 -4.07805 0.025)
(-4.99096 -4.40012 0.025)
(-4.70483 -4.70483 0.025)
(-4.40012 -4.99096 0.025)
(-4.07805 -5.2574 0.025)
(-3.73989 -5.50308 0.025)
(-3.38697 -5.72705 0.025)
(-3.02068 -5.92842 0.025)
(-2.64247 -6.10639 0.025)
(-2.25383 -6.26027 0.025)
(-1.8563 -6.38943 0.025)
(-1.45144 -6.49339 0.025)
(-1.04086 -6.57171 0.025)
(-0.626161 -6.62409 0.025)
(-0.208996 -6.65034 0.025)
(-6.41973 -0.201746 0.025)
(-6.3944 -0.60445 0.025)
(-6.34383 -1.00476 0.025)
(-6.26822 -1.40111 0.025)
(-6.16787 -1.79193 0.025)
(-6.04318 -2.17568 0.025)
(-5.89465 -2.55084 0.025)
(-5.72285 -2.91593 0.025)
(-5.52846 -3.26952 0.025)
(-5.31225 -3.61021 0.025)
(-5.07509 -3.93664 0.025)
(-4.81789 -4.24754 0.025)
(-4.54168 -4.54168 0.025)
(-4.24754 -4.81789 0.025)
(-3.93664 -5.07509 0.025)
(-3.61021 -5.31225 0.025)
(-3.26952 -5.52846 0.025)
(-2.91593 -5.72285 0.025)
(-2.55084 -5.89465 0.025)
(-2.17568 -6.04318 0.025)
(-1.79193 -6.16787 0.025)
(-1.40111 -6.26822 0.025)
(-1.00476 -6.34383 0.025)
(-0.60445 -6.3944 0.025)
(-0.201746 -6.41973 0.025)
(-6.19692 -0.194747 0.025)
(-6.17247 -0.583469 0.025)
(-6.12365 -0.969892 0.025)
(-6.05066 -1.35249 0.025)
(-5.9538 -1.72974 0.025)
(-5.83344 -2.10017 0.025)
(-5.69006 -2.46231 0.025)
(-5.52422 -2.81473 0.025)
(-5.33658 -3.15605 0.025)
(-5.12788 -3.48491 0.025)
(-4.89895 -3.80001 0.025)
(-4.65068 -4.10012 0.025)
(-4.38405 -4.38405 0.025)
(-4.10012 -4.65068 0.025)
(-3.80001 -4.89895 0.025)
(-3.48491 -5.12788 0.025)
(-3.15605 -5.33658 0.025)
(-2.81473 -5.52422 0.025)
(-2.46231 -5.69006 0.025)
(-2.10017 -5.83344 0.025)
(-1.72974 -5.9538 0.025)
(-1.35249 -6.05066 0.025)
(-0.969892 -6.12365 0.025)
(-0.583469 -6.17247 0.025)
(-0.194747 -6.19692 0.025)
(-5.98165 -0.187981 0.025)
(-5.95804 -0.563201 0.025)
(-5.91092 -0.936199 0.025)
(-5.84047 -1.3055 0.025)
(-5.74697 -1.66965 0.025)
(-5.63079 -2.02721 0.025)
(-5.49239 -2.37677 0.025)
(-5.33232 -2.71695 0.025)
(-5.1512 -3.04641 0.025)
(-4.94975 -3.36384 0.025)
(-4.72876 -3.668 0.025)
(-4.48911 -3.95769 0.025)
(-4.23175 -4.23175 0.025)
(-3.95769 -4.48911 0.025)
(-3.668 -4.72876 0.025)
(-3.36384 -4.94975 0.025)
(-3.04641 -5.1512 0.025)
(-2.71695 -5.33232 0.025)
(-2.37677 -5.49239 0.025)
(-2.02721 -5.63079 0.025)
(-1.66965 -5.74697 0.025)
(-1.3055 -5.84047 0.025)
(-0.936199 -5.91092 0.025)
(-0.563201 -5.95804 0.025)
(-0.187981 -5.98165 0.025)
(-5.77365 -0.181445 0.025)
(-5.75087 -0.543617 0.025)
(-5.70539 -0.903643 0.025)
(-5.63739 -1.26011 0.025)
(-5.54714 -1.61159 0.025)
(-5.435 -1.95672 0.025)
(-5.30141 -2.29413 0.025)
(-5.1469 -2.62248 0.025)
(-4.97208 -2.94048 0.025)
(-4.77764 -3.24687 0.025)
(-4.56433 -3.54046 0.025)
(-4.33302 -3.82007 0.025)
(-4.0846 -4.0846 0.025)
(-3.82007 -4.33302 0.025)
(-3.54046 -4.56433 0.025)
(-3.24687 -4.77764 0.025)
(-2.94048 -4.97208 0.025)
(-2.62248 -5.1469 0.025)
(-2.29413 -5.30141 0.025)
(-1.95672 -5.435 0.025)
(-1.61159 -5.54714 0.025)
(-1.26011 -5.63739 0.025)
(-0.903643 -5.70539 0.025)
(-0.543617 -5.75087 0.025)
(-0.181445 -5.77365 0.025)
(-5.57269 -0.175129 0.025)
(-5.5507 -0.524695 0.025)
(-5.5068 -0.872192 0.025)
(-5.44117 -1.21625 0.025)
(-5.35406 -1.5555 0.025)
(-5.24583 -1.88861 0.025)
(-5.11689 -2.21428 0.025)
(-4.96776 -2.5312 0.025)
(-4.79902 -2.83813 0.025)
(-4.61134 -3.13386 0.025)
(-4.40546 -3.41723 0.025)
(-4.1822 -3.68711 0.025)
(-3.94243 -3.94243 0.025)
(-3.68711 -4.1822 0.025)
(-3.41723 -4.40546 0.025)
(-3.13386 -4.61134 0.025)
(-2.83813 -4.79902 0.025)
(-2.5312 -4.96776 0.025)
(-2.21428 -5.11689 0.025)
(-1.88861 -5.24583 0.025)
(-1.5555 -5.35406 0.025)
(-1.21625 -5.44117 0.025)
(-0.872192 -5.5068 0.025)
(-0.524695 -5.5507 0.025)
(-0.175129 -5.57269 0.025)
(-5.37852 -0.169027 0.025)
(-5.3573 -0.506414 0.025)
(-5.31493 -0.841803 0.025)
(-5.25158 -1.17387 0.025)
(-5.16751 -1.5013 0.025)
(-5.06305 -1.82281 0.025)
(-4.9386 -2.13713 0.025)
(-4.79467 -2.443 0.025)
(-4.63181 -2.73924 0.025)
(-4.45067 -3.02467 0.025)
(-4.25197 -3.29816 0.025)
(-4.03648 -3.55864 0.025)
(-3.80507 -3.80507 0.025)
(-3.55864 -4.03648 0.025)
(-3.29816 -4.25197 0.025)
(-3.02467 -4.45067 0.025)
(-2.73924 -4.63181 0.025)
(-2.443 -4.79467 0.025)
(-2.13713 -4.9386 0.025)
(-1.82281 -5.06305 0.025)
(-1.5013 -5.16751 0.025)
(-1.17387 -5.25158 0.025)
(-0.841803 -5.31493 0.025)
(-0.506414 -5.3573 0.025)
(-0.169027 -5.37852 0.025)
(-5.19093 -0.163132 0.025)
(-5.17044 -0.488751 0.025)
(-5.12955 -0.812441 0.025)
(-5.06841 -1.13292 0.025)
(-4.98727 -1.44894 0.025)
(-4.88645 -1.75923 0.025)
(-4.76635 -2.06258 0.025)
(-4.62743 -2.35779 0.025)
(-4.47025 -2.6437 0.025)
(-4.29543 -2.91918 0.025)
(-4.10366 -3.18313 0.025)
(-3.89569 -3.43452 0.025)
(-3.67235 -3.67235 0.025)
(-3.43452 -3.89569 0.025)
(-3.18313 -4.10366 0.025)
(-2.91918 -4.29543 0.025)
(-2.6437 -4.47025 0.025)
(-2.35779 -4.62743 0.025)
(-2.06258 -4.76635 0.025)
(-1.75923 -4.88645 0.025)
(-1.44894 -4.98727 0.025)
(-1.13292 -5.06841 0.025)
(-0.812441 -5.12955 0.025)
(-0.488751 -5.17044 0.025)
(-0.163132 -5.19093 0.025)
(-5.00967 -0.157435 0.025)
(-4.9899 -0.471685 0.025)
(-4.95043 -0.784069 0.025)
(-4.89143 -1.09337 0.025)
(-4.81313 -1.39834 0.025)
(-4.71583 -1.6978 0.025)
(-4.59992 -1.99056 0.025)
(-4.46585 -2.27546 0.025)
(-4.31416 -2.55139 0.025)
(-4.14544 -2.81724 0.025)
(-3.96037 -3.07198 0.025)
(-3.75966 -3.31459 0.025)
(-3.54412 -3.54412 0.025)
(-3.31459 -3.75966 0.025)
(-3.07198 -3.96037 0.025)
(-2.81724 -4.14544 0.025)
(-2.55139 -4.31416 0.025)
(-2.27546 -4.46585 0.025)
(-1.99056 -4.59992 0.025)
(-1.6978 -4.71583 0.025)
(-1.39834 -4.81313 0.025)
(-1.09337 -4.89143 0.025)
(-0.784069 -4.95043 0.025)
(-0.471685 -4.9899 0.025)
(-0.157435 -5.00967 0.025)
(-4.83454 -0.151932 0.025)
(-4.81546 -0.455194 0.025)
(-4.77738 -0.756664 0.025)
(-4.72044 -1.05514 0.025)
(-4.64487 -1.34946 0.025)
(-4.55097 -1.63845 0.025)
(-4.43911 -1.92098 0.025)
(-4.30974 -2.19592 0.025)
(-4.16335 -2.4622 0.025)
(-4.00053 -2.71876 0.025)
(-3.82192 -2.96459 0.025)
(-3.62823 -3.19872 0.025)
(-3.42023 -3.42023 0.025)
(-3.19872 -3.62823 0.025)
(-2.96459 -3.82192 0.025)
(-2.71876 -4.00053 0.025)
(-2.4622 -4.16335 0.025)
(-2.19592 -4.30974 0.025)
(-1.92098 -4.43911 0.025)
(-1.63845 -4.55097 0.025)
(-1.34946 -4.64487 0.025)
(-1.05514 -4.72044 0.025)
(-0.756664 -4.77738 0.025)
(-0.455194 -4.81546 0.025)
(-0.151932 -4.83454 0.025)
(-4.66534 -0.146614 0.025)
(-4.64693 -0.439265 0.025)
(-4.61018 -0.730181 0.025)
(-4.55523 -1.01821 0.025)
(-4.4823 -1.30223 0.025)
(-4.39169 -1.58111 0.025)
(-4.28375 -1.85374 0.025)
(-4.1589 -2.11906 0.025)
(-4.01763 -2.37602 0.025)
(-3.86051 -2.6236 0.025)
(-3.68816 -2.86083 0.025)
(-3.50125 -3.08677 0.025)
(-3.30052 -3.30052 0.025)
(-3.08677 -3.50125 0.025)
(-2.86083 -3.68816 0.025)
(-2.6236 -3.86051 0.025)
(-2.37602 -4.01763 0.025)
(-2.11906 -4.1589 0.025)
(-1.85374 -4.28375 0.025)
(-1.58111 -4.39169 0.025)
(-1.30223 -4.4823 0.025)
(-1.01821 -4.55523 0.025)
(-0.730181 -4.61018 0.025)
(-0.439265 -4.64693 0.025)
(-0.146614 -4.66534 0.025)
(-4.50186 -0.141478 0.025)
(-4.48409 -0.423871 0.025)
(-4.44862 -0.704592 0.025)
(-4.3956 -0.982536 0.025)
(-4.32523 -1.2566 0.025)
(-4.2378 -1.5257 0.025)
(-4.13364 -1.78878 0.025)
(-4.01316 -2.04481 0.025)
(-3.87685 -2.29276 0.025)
(-3.72524 -2.53167 0.025)
(-3.55892 -2.76058 0.025)
(-3.37856 -2.9786 0.025)
(-3.18487 -3.18487 0.025)
(-2.9786 -3.37856 0.025)
(-2.76058 -3.55892 0.025)
(-2.53167 -3.72524 0.025)
(-2.29276 -3.87685 0.025)
(-2.04481 -4.01316 0.025)
(-1.78878 -4.13364 0.025)
(-1.5257 -4.2378 0.025)
(-1.2566 -4.32523 0.025)
(-0.982536 -4.3956 0.025)
(-0.704592 -4.44862 0.025)
(-0.423871 -4.48409 0.025)
(-0.141478 -4.50186 0.025)
(-4.3439 -0.136512 0.025)
(-4.32676 -0.408999 0.025)
(-4.29254 -0.679871 0.025)
(-4.24138 -0.948062 0.025)
(-4.17348 -1.21251 0.025)
(-4.08911 -1.47217 0.025)
(-3.9886 -1.72602 0.025)
(-3.87235 -1.97306 0.025)
(-3.74082 -2.21232 0.025)
(-3.59453 -2.44284 0.025)
(-3.43405 -2.66372 0.025)
(-3.26002 -2.87409 0.025)
(-3.07312 -3.07312 0.025)
(-2.87409 -3.26002 0.025)
(-2.66372 -3.43405 0.025)
(-2.44284 -3.59453 0.025)
(-2.21232 -3.74082 0.025)
(-1.97306 -3.87235 0.025)
(-1.72602 -3.9886 0.025)
(-1.47217 -4.08911 0.025)
(-1.21251 -4.17348 0.025)
(-0.948062 -4.24138 0.025)
(-0.679871 -4.29254 0.025)
(-0.408999 -4.32676 0.025)
(-0.136512 -4.3439 0.025)
(-4.19129 -0.131716 0.025)
(-4.17475 -0.394631 0.025)
(-4.14173 -0.655987 0.025)
(-4.09237 -0.914753 0.025)
(-4.02686 -1.16991 0.025)
(-3.94545 -1.42045 0.025)
(-3.84847 -1.66538 0.025)
(-3.73631 -1.90375 0.025)
(-3.6094 -2.13459 0.025)
(-3.46824 -2.35702 0.025)
(-3.3134 -2.57014 0.025)
(-3.14548 -2.77312 0.025)
(-2.96515 -2.96515 0.025)
(-2.77312 -3.14548 0.025)
(-2.57014 -3.3134 0.025)
(-2.35702 -3.46824 0.025)
(-2.13459 -3.6094 0.025)
(-1.90375 -3.73631 0.025)
(-1.66538 -3.84847 0.025)
(-1.42045 -3.94545 0.025)
(-1.16991 -4.02686 0.025)
(-0.914753 -4.09237 0.025)