/*--------------------------------*- C++ -*----------------------------------*\
| =========                 |                                                 |
| \\      /  F ield         | OpenFOAM: The Open Source CFD Toolbox           |
|  \\    /   O peration     | Version:  v1912                                 |
|   \\  /    A nd           | Website:  www.openfoam.com                      |
|    \\/     M anipulation  |                                                 |
\*---------------------------------------------------------------------------*/
FoamFile
{
    version     2.0;
    format      ascii;
    class       volScalarField;
    location    "1000";
    object      p;
}
// * * * * * * * * * * * * * * * * * * * * * * * * * * * * * * * * * * * * * //

dimensions      [1 -1 -2 0 0 0 0];


internalField   nonuniform List<scalar> 
9900
(
0.717284
0.717534
0.71764
0.717822
0.717879
0.717942
0.717902
0.717828
0.717674
0.717462
0.717177
0.716848
0.716483
0.716075
0.715622
0.715157
0.714731
0.714388
0.714185
0.714158
0.714454
0.715214
0.716541
0.71888
0.72202
0.715761
0.715591
0.715717
0.715602
0.715596
0.715489
0.715412
0.715247
0.715116
0.714928
0.714745
0.714556
0.714373
0.714218
0.7141
0.714031
0.714018
0.714065
0.71421
0.714569
0.715141
0.715898
0.716642
0.716594
0.714985
0.714377
0.714288
0.714286
0.714222
0.714168
0.714086
0.714006
0.7139
0.713797
0.713693
0.713606
0.713541
0.713493
0.713473
0.713496
0.713579
0.713724
0.713953
0.714279
0.714712
0.715196
0.715704
0.716219
0.716622
0.717464
0.714353
0.714407
0.714341
0.714365
0.714301
0.714271
0.71418
0.714127
0.71402
0.713928
0.713845
0.713775
0.713725
0.713688
0.71368
0.713723
0.713826
0.714014
0.714298
0.71466
0.71509
0.715608
0.716254
0.716941
0.71759
0.714711
0.714721
0.71467
0.714635
0.71457
0.714493
0.7144
0.714304
0.714187
0.714076
0.713969
0.713878
0.713804
0.713751
0.713739
0.713773
0.71386
0.714026
0.714281
0.714629
0.715081
0.715649
0.716307
0.716917
0.717409
0.714861
0.714804
0.714742
0.714649
0.71456
0.714441
0.714328
0.714192
0.714066
0.713943
0.713832
0.71374
0.713672
0.713634
0.713637
0.713688
0.713799
0.713984
0.714256
0.714626
0.715092
0.715648
0.716263
0.716849
0.717391
0.714829
0.714748
0.714661
0.714554
0.714449
0.714321
0.714182
0.714043
0.713905
0.71378
0.713678
0.713599
0.713547
0.713529
0.713548
0.713615
0.713745
0.713948
0.714235
0.714611
0.71507
0.7156
0.716188
0.716778
0.717322
0.714793
0.714699
0.714594
0.714478
0.714358
0.714224
0.714079
0.71394
0.713801
0.713679
0.713583
0.713514
0.713474
0.713467
0.713497
0.713576
0.713716
0.713927
0.714217
0.714588
0.715034
0.715541
0.716101
0.716676
0.71721
0.714794
0.714684
0.714565
0.714436
0.714301
0.714157
0.714007
0.713863
0.713725
0.713605
0.713513
0.713449
0.713418
0.71342
0.713459
0.713547
0.713694
0.713907
0.714196
0.714559
0.714989
0.715473
0.715999
0.716546
0.717066
0.714803
0.714677
0.714544
0.714401
0.714253
0.714099
0.713942
0.713792
0.713653
0.713537
0.713448
0.71339
0.713365
0.713375
0.713423
0.713519
0.713671
0.713886
0.714169
0.714521
0.714936
0.715398
0.715891
0.716403
0.7169
0.714802
0.714663
0.714516
0.714362
0.714203
0.714041
0.713879
0.713725
0.713588
0.713473
0.713389
0.713338
0.713321
0.713338
0.713394
0.713495
0.713649
0.713863
0.71414
0.71448
0.714879
0.715318
0.715782
0.716259
0.716724
0.714788
0.714641
0.714482
0.71432
0.714154
0.713986
0.713822
0.713668
0.713532
0.713422
0.713342
0.713297
0.713286
0.71331
0.713371
0.713477
0.713632
0.713843
0.71411
0.714436
0.714816
0.715234
0.715672
0.716116
0.716549
0.714772
0.714617
0.71445
0.714282
0.71411
0.71394
0.713775
0.713622
0.713489
0.713382
0.713308
0.713268
0.713263
0.713292
0.713357
0.713465
0.713619
0.713825
0.714082
0.714392
0.714752
0.715147
0.715561
0.715976
0.716379
0.714756
0.714595
0.714423
0.71425
0.714075
0.713903
0.713739
0.713588
0.713458
0.713355
0.713285
0.713251
0.71325
0.713283
0.713351
0.713459
0.71361
0.713808
0.714054
0.714347
0.714686
0.715058
0.715448
0.715838
0.716214
0.714742
0.714576
0.7144
0.714224
0.714048
0.713876
0.713713
0.713564
0.713438
0.71334
0.713275
0.713244
0.713246
0.713281
0.71335
0.713457
0.713603
0.713793
0.714027
0.714304
0.714621
0.714969
0.715335
0.715701
0.716053
0.71473
0.71456
0.714382
0.714205
0.714029
0.713857
0.713696
0.713551
0.713429
0.713335
0.713274
0.713246
0.713251
0.713287
0.713355
0.713459
0.7136
0.713781
0.714001
0.714261
0.714557
0.714882
0.715223
0.715565
0.715894
0.714719
0.714548
0.71437
0.714193
0.714017
0.713848
0.71369
0.713548
0.71343
0.71334
0.713282
0.713257
0.713263
0.713299
0.713366
0.713465
0.713599
0.71377
0.713978
0.714221
0.714496
0.714797
0.715114
0.715432
0.715739
0.714711
0.71454
0.714364
0.714187
0.714014
0.713847
0.713692
0.713555
0.713441
0.713354
0.713299
0.713275
0.713281
0.713316
0.71338
0.713475
0.713602
0.713762
0.713956
0.714182
0.714437
0.714716
0.715008
0.715303
0.715587
0.714707
0.714537
0.714363
0.714189
0.714018
0.713855
0.713704
0.713571
0.71346
0.713377
0.713323
0.7133
0.713306
0.713339
0.713399
0.713488
0.713606
0.713756
0.713937
0.714146
0.714382
0.714638
0.714908
0.715179
0.715442
0.714708
0.71454
0.714369
0.714198
0.71403
0.713871
0.713724
0.713594
0.713487
0.713406
0.713354
0.71333
0.713335
0.713365
0.713421
0.713503
0.713613
0.713752
0.713919
0.714113
0.71433
0.714565
0.714813
0.715062
0.715303
0.714713
0.714548
0.71438
0.714213
0.714049
0.713894
0.713751
0.713625
0.713521
0.713442
0.71339
0.713366
0.713368
0.713394
0.713445
0.713521
0.713622
0.71375
0.713903
0.714081
0.714281
0.714497
0.714723
0.714951
0.715172
0.714722
0.714561
0.714397
0.714234
0.714075
0.713923
0.713784
0.713662
0.71356
0.713482
0.713431
0.713405
0.713404
0.713426
0.713472
0.71354
0.713632
0.713749
0.713889
0.714052
0.714235
0.714432
0.714638
0.714847
0.715049
0.714735
0.714579
0.71442
0.714261
0.714106
0.713958
0.713823
0.713704
0.713604
0.713527
0.713475
0.713447
0.713443
0.713461
0.7135
0.713561
0.713644
0.713749
0.713877
0.714025
0.714191
0.714371
0.714558
0.714748
0.714932
0.714753
0.714601
0.714446
0.714292
0.714142
0.713999
0.713867
0.71375
0.713652
0.713576
0.713523
0.713492
0.713484
0.713497
0.713529
0.713583
0.713656
0.713751
0.713865
0.713999
0.71415
0.714313
0.714483
0.714655
0.714822
0.714774
0.714627
0.714478
0.714328
0.714182
0.714043
0.713915
0.7138
0.713704
0.713628
0.713573
0.713539
0.713527
0.713534
0.71356
0.713605
0.713669
0.713753
0.713855
0.713975
0.714111
0.714257
0.714411
0.714566
0.714718
0.714799
0.714658
0.714513
0.714368
0.714226
0.714091
0.713966
0.713854
0.713758
0.713681
0.713625
0.713588
0.713571
0.713572
0.713591
0.713628
0.713683
0.713756
0.713846
0.713953
0.714074
0.714205
0.714343
0.714482
0.714619
0.714828
0.714691
0.714551
0.714411
0.714274
0.714142
0.71402
0.71391
0.713815
0.713737
0.713678
0.713638
0.713615
0.713611
0.713623
0.713652
0.713698
0.71376
0.713838
0.713932
0.714038
0.714154
0.714277
0.714402
0.714525
0.71486
0.714728
0.714593
0.714458
0.714324
0.714196
0.714076
0.713968
0.713873
0.713794
0.713733
0.713688
0.713661
0.71365
0.713655
0.713676
0.713712
0.713764
0.713831
0.713911
0.714004
0.714106
0.714214
0.714325
0.714434
0.714895
0.714768
0.714638
0.714507
0.714377
0.714252
0.714135
0.714027
0.713933
0.713852
0.713788
0.713739
0.713707
0.713689
0.713687
0.713699
0.713727
0.713768
0.713823
0.713892
0.713971
0.71406
0.714154
0.714251
0.714348
0.714932
0.714811
0.714685
0.714558
0.714432
0.71431
0.714194
0.714088
0.713993
0.713911
0.713844
0.713791
0.713753
0.713729
0.713719
0.713723
0.713741
0.713772
0.713816
0.713873
0.713939
0.714015
0.714096
0.71418
0.714264
0.714973
0.714856
0.714734
0.714611
0.714489
0.714369
0.714256
0.71415
0.714054
0.71397
0.7139
0.713842
0.713799
0.713768
0.713751
0.713747
0.713755
0.713776
0.713809
0.713854
0.713908
0.713971
0.714039
0.714111
0.714184
0.715016
0.714903
0.714786
0.714667
0.714547
0.71443
0.714318
0.714212
0.714116
0.71403
0.713956
0.713894
0.713844
0.713807
0.713782
0.71377
0.713769
0.71378
0.713802
0.713835
0.713877
0.713927
0.713983
0.714043
0.714105
0.715061
0.714953
0.71484
0.714724
0.714607
0.714492
0.714381
0.714275
0.714178
0.71409
0.714012
0.713945
0.71389
0.713846
0.713814
0.713792
0.713782
0.713783
0.713795
0.713816
0.713847
0.713885
0.713929
0.713977
0.714028
0.715109
0.715005
0.714895
0.714783
0.714668
0.714555
0.714445
0.714339
0.71424
0.714149
0.714068
0.713996
0.713935
0.713884
0.713844
0.713814
0.713795
0.713786
0.713787
0.713797
0.713816
0.713842
0.713875
0.713912
0.713953
0.71516
0.715059
0.714953
0.714843
0.714731
0.714619
0.714509
0.714403
0.714303
0.714209
0.714124
0.714047
0.71398
0.713922
0.713874
0.713836
0.713807
0.713788
0.713778
0.713778
0.713785
0.7138
0.713821
0.713848
0.713878
0.715213
0.715116
0.715012
0.714905
0.714795
0.714684
0.714575
0.714468
0.714365
0.714269
0.714179
0.714097
0.714024
0.713959
0.713903
0.713856
0.713818
0.713789
0.713769
0.713757
0.713754
0.713757
0.713768
0.713784
0.713804
0.715268
0.715174
0.715074
0.714969
0.714861
0.714751
0.714641
0.714533
0.714428
0.714329
0.714235
0.714147
0.714068
0.713995
0.713931
0.713876
0.713828
0.713789
0.713759
0.713736
0.713721
0.713714
0.713714
0.713719
0.71373
0.715326
0.715235
0.715138
0.715035
0.714928
0.714818
0.714708
0.714599
0.714492
0.714388
0.71429
0.714197
0.714111
0.714031
0.713959
0.713894
0.713837
0.713788
0.713747
0.713714
0.713688
0.71367
0.713659
0.713654
0.713656
0.715387
0.715299
0.715203
0.715102
0.714996
0.714887
0.714776
0.714665
0.714555
0.714448
0.714345
0.714246
0.714153
0.714066
0.713986
0.713912
0.713845
0.713786
0.713734
0.71369
0.713654
0.713625
0.713603
0.713588
0.71358
0.71545
0.715365
0.715272
0.715172
0.715066
0.714957
0.714845
0.714732
0.714619
0.714508
0.7144
0.714295
0.714195
0.714101
0.714011
0.713928
0.713852
0.713783
0.71372
0.713666
0.713618
0.713578
0.713546
0.713521
0.713504
0.715516
0.715434
0.715342
0.715243
0.715138
0.715028
0.714915
0.7148
0.714684
0.714569
0.714455
0.714344
0.714237
0.714134
0.714036
0.713944
0.713858
0.713778
0.713705
0.713639
0.713581
0.71353
0.713487
0.713452
0.713425
0.715586
0.715505
0.715416
0.715318
0.715213
0.715102
0.714987
0.714869
0.714749
0.714629
0.71451
0.714393
0.714278
0.714167
0.71406
0.713958
0.713862
0.713772
0.713688
0.713611
0.713542
0.71348
0.713427
0.713382
0.713345
0.715659
0.71558
0.715492
0.715394
0.715289
0.715177
0.71506
0.714939
0.714816
0.714691
0.714566
0.714441
0.714319
0.714199
0.714083
0.713972
0.713865
0.713764
0.713669
0.713581
0.713501
0.713428
0.713364
0.713309
0.713262
0.715735
0.715659
0.715571
0.715474
0.715368
0.715255
0.715135
0.715011
0.714883
0.714753
0.714621
0.71449
0.71436
0.714231
0.714106
0.713984
0.713867
0.713755
0.713649
0.71355
0.713458
0.713374
0.713299
0.713233
0.713177
0.715815
0.71574
0.715654
0.715556
0.715449
0.715334
0.715212
0.715084
0.714951
0.714816
0.714678
0.714539
0.7144
0.714263
0.714127
0.713995
0.713867
0.713744
0.713627
0.713516
0.713413
0.713317
0.713231
0.713155
0.713088
0.7159
0.715826
0.71574
0.715642
0.715534
0.715417
0.715291
0.715159
0.715022
0.71488
0.714735
0.714588
0.714441
0.714294
0.714148
0.714005
0.713866
0.713731
0.713602
0.71348
0.713365
0.713258
0.713161
0.713073
0.712996
0.715988
0.715916
0.71583
0.715731
0.715622
0.715502
0.715373
0.715236
0.715093
0.714945
0.714793
0.714638
0.714481
0.714324
0.714168
0.714014
0.713864
0.713717
0.713576
0.713442
0.713314
0.713196
0.713087
0.712988
0.712901
0.716081
0.71601
0.715924
0.715824
0.715713
0.71559
0.715457
0.715316
0.715167
0.715012
0.714851
0.714688
0.714522
0.714355
0.714188
0.714023
0.71386
0.713701
0.713548
0.713401
0.713261
0.713131
0.71301
0.712899
0.712801
0.716179
0.716108
0.716022
0.715922
0.715808
0.715682
0.715545
0.715398
0.715243
0.71508
0.714912
0.714739
0.714563
0.714385
0.714207
0.71403
0.713855
0.713684
0.713517
0.713358
0.713205
0.713062
0.712929
0.712807
0.712697
0.716282
0.716212
0.716125
0.716023
0.715907
0.715777
0.715635
0.715483
0.715321
0.71515
0.714973
0.71479
0.714604
0.714415
0.714225
0.714036
0.713848
0.713664
0.713485
0.713312
0.713146
0.71299
0.712844
0.71271
0.712588
0.716391
0.716321
0.716233
0.716129
0.71601
0.715876
0.715729
0.715571
0.715401
0.715222
0.715036
0.714843
0.714646
0.714445
0.714243
0.714041
0.71384
0.713642
0.71345
0.713263
0.713084
0.712914
0.712755
0.712608
0.712475
0.716505
0.716435
0.716347
0.716241
0.716118
0.71598
0.715827
0.715662
0.715484
0.715297
0.7151
0.714897
0.714688
0.714475
0.71426
0.714045
0.71383
0.713619
0.713412
0.713211
0.713018
0.712835
0.712662
0.712502
0.712356
0.716626
0.716556
0.716466
0.716357
0.716231
0.716088
0.715929
0.715756
0.71557
0.715373
0.715167
0.714952
0.714731
0.714505
0.714277
0.714048
0.713819
0.713593
0.713372
0.713156
0.712949
0.712751
0.712565
0.712391
0.712231
0.716753
0.716682
0.716591
0.716479
0.716349
0.7162
0.716035
0.715855
0.71566
0.715453
0.715235
0.715009
0.714775
0.714536
0.714293
0.71405
0.713806
0.713565
0.713329
0.713098
0.712876
0.712663
0.712462
0.712274
0.712101
0.716886
0.716816
0.716722
0.716608
0.716473
0.716318
0.716146
0.715957
0.715753
0.715535
0.715306
0.715067
0.71482
0.714566
0.714309
0.71405
0.713792
0.713535
0.713283
0.713037
0.712799
0.712571
0.712355
0.712152
0.711965
0.717028
0.716956
0.716861
0.716742
0.716602
0.716442
0.716262
0.716064
0.715849
0.715621
0.715379
0.715126
0.714865
0.714597
0.714325
0.71405
0.713775
0.713502
0.713234
0.712971
0.712718
0.712474
0.712242
0.712024
0.711822
0.717176
0.717104
0.717006
0.716884
0.716739
0.716571
0.716383
0.716175
0.71595
0.715709
0.715454
0.715188
0.714912
0.714628
0.71434
0.714048
0.713757
0.713467
0.713181
0.712902
0.712632
0.712371
0.712124
0.71189
0.711672
0.717333
0.71726
0.717159
0.717033
0.716881
0.716706
0.716509
0.716291
0.716055
0.715801
0.715532
0.715251
0.714959
0.71466
0.714354
0.714045
0.713736
0.713429
0.713126
0.712829
0.712541
0.712264
0.711999
0.711749
0.711515
0.717499
0.717424
0.71732
0.717189
0.717031
0.716848
0.716642
0.716413
0.716164
0.715897
0.715613
0.715316
0.715008
0.714691
0.714368
0.714041
0.713713
0.713388
0.713066
0.712751
0.712445
0.71215
0.711869
0.711602
0.711351
0.717674
0.717597
0.71749
0.717353
0.717189
0.716997
0.71678
0.71654
0.716278
0.715996
0.715697
0.715383
0.715058
0.714722
0.714381
0.714035
0.713688
0.713343
0.713002
0.712668
0.712344
0.712031
0.711731
0.711447
0.711179
0.717858
0.717779
0.717668
0.717526
0.717354
0.717153
0.716926
0.716672
0.716396
0.716099
0.715784
0.715453
0.715108
0.714754
0.714393
0.714027
0.71366
0.713295
0.712934
0.712581
0.712237
0.711905
0.711587
0.711284
0.710999
0.718052
0.717971
0.717856
0.717708
0.717528
0.717317
0.717078
0.716811
0.71652
0.716207
0.715874
0.715524
0.71516
0.714786
0.714403
0.714017
0.713629
0.713243
0.712861
0.712487
0.712123
0.711772
0.711435
0.711114
0.71081
0.718257
0.718174
0.718054
0.7179
0.717711
0.717489
0.717237
0.716956
0.716649
0.716318
0.715967
0.715597
0.715213
0.714817
0.714413
0.714004
0.713594
0.713186
0.712783
0.712388
0.712003
0.711631
0.711275
0.710935
0.710612
0.718473
0.718388
0.718263
0.718101
0.717903
0.71767
0.717404
0.717108
0.716784
0.716434
0.716063
0.715672
0.715266
0.714848
0.714421
0.713989
0.713556
0.713125
0.712699
0.712282
0.711876
0.711483
0.711106
0.710746
0.710405
0.718701
0.718613
0.718483
0.718313
0.718104
0.717859
0.717579
0.717266
0.716924
0.716555
0.716162
0.715749
0.71532
0.714878
0.714427
0.713971
0.713513
0.713058
0.712609
0.712169
0.71174
0.711326
0.710928
0.710548
0.710188
0.718942
0.71885
0.718714
0.718536
0.718316
0.718058
0.717762
0.717432
0.71707
0.71668
0.716264
0.715828
0.715374
0.714907
0.71443
0.713948
0.713466
0.712985
0.712512
0.712047
0.711596
0.71116
0.71074
0.71034
0.709959
0.719195
0.7191
0.718958
0.71877
0.718539
0.718266
0.717954
0.717605
0.717222
0.716809
0.71637
0.715908
0.715428
0.714935
0.714431
0.713922
0.713412
0.712906
0.712406
0.711918
0.711442
0.710983
0.710542
0.710121
0.70972
0.719463
0.719363
0.719214
0.719017
0.718773
0.718485
0.718154
0.717785
0.71738
0.716944
0.716479
0.71599
0.715483
0.71496
0.714428
0.713891
0.713353
0.712819
0.712293
0.711778
0.711278
0.710795
0.710332
0.709889
0.709468
0.719744
0.719641
0.719484
0.719276
0.719018
0.718714
0.718364
0.717973
0.717545
0.717082
0.71659
0.716073
0.715536
0.714984
0.714422
0.713854
0.713287
0.712724
0.71217
0.711628
0.711103
0.710596
0.71011
0.709645
0.709203
0.720041
0.719933
0.719768
0.719549
0.719276
0.718954
0.718584
0.71817
0.717716
0.717226
0.716704
0.716157
0.715588
0.715004
0.71441
0.713811
0.713212
0.712619
0.712036
0.711466
0.710915
0.710383
0.709873
0.709387
0.708925
0.720354
0.72024
0.720067
0.719835
0.719547
0.719205
0.718813
0.718374
0.717893
0.717373
0.716821
0.716241
0.715639
0.715021
0.714393
0.71376
0.713129
0.712504
0.71189
0.711292
0.710713
0.710156
0.709622
0.709114
0.708631
0.720684
0.720564
0.720381
0.720136
0.719831
0.719468
0.719052
0.718587
0.718076
0.717525
0.716939
0.716324
0.715687
0.715033
0.714369
0.713701
0.713035
0.712377
0.711731
0.711103
0.710496
0.709912
0.709355
0.708825
0.708322
0.72103
0.720905
0.720712
0.720452
0.720128
0.719744
0.719302
0.718807
0.718265
0.71768
0.717059
0.716407
0.715732
0.71504
0.714337
0.713632
0.712929
0.712236
0.711557
0.710898
0.710261
0.709652
0.70907
0.708518
0.707995
0.721395
0.721263
0.721059
0.720783
0.72044
0.720031
0.719562
0.719036
0.71846
0.717839
0.717179
0.716488
0.715772
0.715039
0.714296
0.713551
0.71281
0.71208
0.711366
0.710674
0.710009
0.709372
0.708766
0.708192
0.707649
0.721779
0.72164
0.721423
0.721131
0.720766
0.720331
0.719832
0.719273
0.71866
0.718
0.717299
0.716566
0.715807
0.71503
0.714244
0.713457
0.712675
0.711906
0.711157
0.710431
0.709735
0.70907
0.70844
0.707844
0.707282
0.722183
0.722036
0.721806
0.721495
0.721107
0.720644
0.720113
0.719518
0.718866
0.718164
0.717419
0.716639
0.715834
0.715011
0.71418
0.713347
0.712523
0.711713
0.710926
0.710166
0.709438
0.708745
0.70809
0.707473
0.706893
0.722606
0.722451
0.722207
0.721876
0.721463
0.72097
0.720404
0.71977
0.719076
0.718328
0.717536
0.716708
0.715853
0.71498
0.7141
0.71322
0.712351
0.711498
0.710671
0.709875
0.709115
0.708394
0.707715
0.707077
0.70648
0.723051
0.722887
0.722627
0.722275
0.721834
0.721309
0.720705
0.720029
0.719289
0.718493
0.71765
0.716769
0.715861
0.714936
0.714003
0.713073
0.712155
0.711258
0.71039
0.709556
0.708763
0.708014
0.70731
0.706652
0.706039
0.723518
0.723343
0.723067
0.722691
0.72222
0.72166
0.721015
0.720294
0.719505
0.718656
0.717758
0.716821
0.715856
0.714874
0.713886
0.712902
0.711934
0.71099
0.710078
0.709206
0.708379
0.707601
0.706873
0.706196
0.705569
0.724006
0.723821
0.723526
0.723125
0.722622
0.722023
0.721334
0.720564
0.719722
0.718816
0.717859
0.716862
0.715835
0.714793
0.713745
0.712705
0.711683
0.710689
0.709732
0.70882
0.707959
0.707152
0.706401
0.705706
0.705066
0.724517
0.72432
0.724005
0.723577
0.723039
0.722398
0.721662
0.720838
0.719938
0.718972
0.717951
0.716888
0.715796
0.714688
0.713577
0.712476
0.711398
0.710351
0.709348
0.708395
0.707498
0.706662
0.705889
0.705178
0.704528
0.725051
0.72484
0.724504
0.724045
0.72347
0.722784
0.721995
0.721115
0.720152
0.719119
0.718029
0.716896
0.715734
0.714556
0.713378
0.712212
0.711073
0.709972
0.70892
0.707924
0.706992
0.706128
0.705333
0.704608
0.703949
0.725606
0.725382
0.725022
0.724531
0.723914
0.723179
0.722334
0.721391
0.720361
0.719256
0.718092
0.716883
0.715644
0.714392
0.713141
0.711907
0.710704
0.709546
0.708442
0.707403
0.706435
0.705543
0.704728
0.703991
0.703327
0.726184
0.725944
0.725559
0.725032
0.72437
0.723581
0.722676
0.721665
0.720561
0.719379
0.718134
0.716843
0.715523
0.71419
0.712862
0.711555
0.710285
0.709065
0.707908
0.706824
0.705821
0.704901
0.704069
0.703322
0.702657
0.726784
0.726527
0.726113
0.725547
0.724836
0.723989
0.723017
0.721933
0.720749
0.719483
0.718152
0.716772
0.715363
0.713944
0.712533
0.711148
0.709806
0.708523
0.707311
0.706181
0.705142
0.704197
0.703348
0.702595
0.701932
0.727403
0.727127
0.726682
0.726074
0.72531
0.7244
0.723355
0.722191
0.720921
0.719564
0.718137
0.716662
0.715158
0.713646
0.712146
0.710678
0.70926
0.70791
0.706641
0.705465
0.70439
0.703421
0.70256
0.701804
0.701149
0.728039
0.727743
0.727265
0.726611
0.725789
0.724809
0.723686
0.722434
0.72107
0.719613
0.718085
0.716506
0.714899
0.713287
0.711691
0.710135
0.708638
0.707217
0.705889
0.704665
0.703555
0.702565
0.701694
0.700941
0.700299
0.728691
0.728373
0.727858
0.727153
0.726267
0.725212
0.724003
0.722655
0.721189
0.719625
0.717986
0.716295
0.714577
0.712856
0.711159
0.709508
0.707926
0.706432
0.705042
0.703771
0.702628
0.701618
0.700743
0.699998
0.699377
0.729354
0.729011
0.728456
0.727695
0.72674
0.725602
0.724299
0.722848
0.721271
0.719589
0.717829
0.716017
0.714179
0.712342
0.710535
0.708784
0.707112
0.70554
0.704088
0.70277
0.701595
0.70057
0.699696
0.698967
0.698377
0.730022
0.729652
0.729052
0.728231
0.7272
0.725972
0.724566
0.723002
0.721303
0.719495
0.717604
0.715659
0.713691
0.711729
0.709804
0.707946
0.70618
0.704528
0.703011
0.701645
0.700443
0.699409
0.698542
0.697838
0.697294
0.730688
0.730289
0.72964
0.728753
0.727638
0.726311
0.724793
0.723106
0.721275
0.719327
0.717294
0.715206
0.713098
0.710999
0.708948
0.706977
0.705111
0.703376
0.701794
0.700383
0.699157
0.698121
0.697269
0.696604
0.696124
0.731343
0.730911
0.730209
0.729249
0.728042
0.726608
0.724967
0.723145
0.721169
0.71907
0.716882
0.71464
0.712379
0.710133
0.707948
0.705857
0.703886
0.702065
0.700419
0.698968
0.697726
0.696698
0.695864
0.695282
0.694884
0.731975
0.731506
0.730746
0.729705
0.728399
0.726846
0.725071
0.723101
0.720968
0.718705
0.716347
0.713939
0.711513
0.709105
0.70678
0.704566
0.702488
0.70058
0.698875
0.697392
0.696149
0.695144
0.694385
0.693885
0.693572
0.732567
0.732059
0.731234
0.730105
0.728689
0.727007
0.725085
0.722954
0.720651
0.718209
0.715668
0.713086
0.710481
0.707896
0.70543
0.703095
0.70091
0.698921
0.697169
0.695669
0.694457
0.693518
0.692842
0.692444
0.692284
0.7331
0.732548
0.731653
0.730429
0.728893
0.727071
0.72499
0.722687
0.720202
0.717568
0.714829
0.712066
0.70927
0.706517
0.703898
0.701457
0.699181
0.69713
0.695354
0.693875
0.692718
0.691868
0.691327
0.691086
0.691108
0.733552
0.732954
0.731985
0.730659
0.728997
0.727027
0.72478
0.722295
0.719629
0.716796
0.713854
0.71091
0.707969
0.705055
0.702278
0.699723
0.697392
0.695321
0.69356
0.69214
0.691075
0.69036
0.689983
0.689921
0.690129
0.733923
0.733278
0.732235
0.730808
0.729022
0.726907
0.724499
0.721836
0.718995
0.716
0.712879
0.709741
0.706676
0.70366
0.700782
0.698131
0.695774
0.693721
0.692014
0.690681
0.689732
0.689158
0.688936
0.689029
0.689386
0.734259
0.733577
0.732473
0.730965
0.729079
0.726848
0.724312
0.721514
0.71852
0.715395
0.712161
0.708901
0.705706
0.702611
0.699687
0.697019
0.694652
0.692621
0.690961
0.689695
0.688827
0.688343
0.688213
0.688395
0.688833
0.734551
0.733849
0.732712
0.73116
0.729221
0.726929
0.724327
0.72146
0.71839
0.715188
0.711894
0.708579
0.705329
0.702201
0.699245
0.696549
0.694164
0.692131
0.690477
0.689222
0.68837
0.687904
0.687795
0.687997
0.688456
0.718942
0.71987
0.719978
0.720353
0.720405
0.7206
0.720293
0.719731
0.719089
0.718348
0.717579
0.716821
0.716068
0.715294
0.714505
0.713736
0.713064
0.712557
0.712222
0.712003
0.711884
0.71169
0.71175
0.710801
0.711399
0.717254
0.719292
0.719749
0.720123
0.720176
0.720347
0.720084
0.719599
0.719011
0.718314
0.717572
0.716826
0.716083
0.715323
0.714547
0.713794
0.713136
0.712636
0.712305
0.712097
0.712
0.711867
0.711849
0.711316
0.712081
0.718346
0.719237
0.719616
0.719921
0.72002
0.72011
0.719903
0.719467
0.718906
0.718241
0.71753
0.71681
0.716086
0.715345
0.714591
0.713859
0.713217
0.712724
0.712395
0.712194
0.712125
0.712109
0.712307
0.712219
0.712775
0.718235
0.719028
0.719427
0.719723
0.719829
0.719874
0.719692
0.719298
0.718775
0.718151
0.717476
0.716786
0.716086
0.715371
0.714644
0.713938
0.713315
0.712832
0.712505
0.712308
0.712252
0.712313
0.71263
0.712945
0.71313
0.717958
0.718728
0.719189
0.71947
0.719595
0.719623
0.719465
0.719112
0.718624
0.71804
0.717404
0.716749
0.71608
0.715396
0.714701
0.714024
0.713423
0.712951
0.712624
0.712428
0.712366
0.71245
0.712739
0.713109
0.713079
0.718029
0.718618
0.719006
0.719256
0.719361
0.71937
0.719231
0.718912
0.718459
0.717915
0.71732
0.716702
0.716069
0.715419
0.714759
0.714115
0.713537
0.713078
0.712753
0.712553
0.712472
0.712503
0.7126
0.712919
0.712717
0.717846
0.718377
0.718756
0.718996
0.719105
0.719114
0.718989
0.718701
0.718283
0.717779
0.717225
0.716647
0.716051
0.715439
0.714816
0.714207
0.713656
0.713211
0.71289
0.712684
0.712578
0.712481
0.712318
0.71233
0.71229
0.71772
0.718191
0.71853
0.718745
0.718847
0.718857
0.718745
0.718483
0.718098
0.717633
0.717121
0.716584
0.716027
0.715454
0.714871
0.714298
0.713775
0.713347
0.713033
0.712825
0.712722
0.712564
0.712417
0.711362
0.711569
0.71755
0.717972
0.718287
0.71849
0.718591
0.718603
0.7185
0.718261
0.717908
0.717481
0.71701
0.716514
0.715997
0.715465
0.714922
0.714386
0.713894
0.713485
0.713181
0.712978
0.712881
0.712746
0.712588
0.710988
0.711238
0.717356
0.717747
0.718043
0.718237
0.718338
0.718351
0.718256
0.718037
0.717714
0.717324
0.716894
0.716438
0.715962
0.71547
0.714967
0.714468
0.714008
0.713622
0.713332
0.71314
0.713048
0.712991
0.712778
0.71126
0.711409
0.717153
0.717519
0.7178
0.717988
0.718089
0.718103
0.718014
0.717812
0.717519
0.717165
0.716773
0.716357
0.715921
0.715468
0.715005
0.714545
0.714116
0.713755
0.713483
0.713306
0.713227
0.713254
0.713121
0.711894
0.711758
0.716949
0.717294
0.717562
0.717745
0.717845
0.717858
0.717774
0.717589
0.717323
0.717004
0.71665
0.716273
0.715875
0.715461
0.715036
0.714613
0.714216
0.71388
0.713628
0.713469
0.713405
0.713488
0.713507
0.712703
0.712043
0.716752
0.717075
0.71733
0.717507
0.717604
0.717617
0.717537
0.717369
0.71713
0.716844
0.716526
0.716185
0.715824
0.715447
0.715059
0.714672
0.714306
0.713993
0.713759
0.713617
0.713565
0.713659
0.71377
0.71323
0.712119
0.716562
0.716864
0.717104
0.717274
0.717367
0.717378
0.717304
0.717153
0.71694
0.716685
0.716401
0.716095
0.715769
0.715427
0.715075
0.714721
0.714385
0.714093
0.713873
0.713741
0.713697
0.713766
0.713859
0.71333
0.71187
0.716377
0.716659
0.716884
0.717045
0.717132
0.717142
0.717077
0.716942
0.716754
0.716529
0.716277
0.716004
0.715711
0.715402
0.715083
0.714762
0.714454
0.714181
0.713969
0.713837
0.713791
0.713823
0.713842
0.713262
0.711745
0.716197
0.716459
0.716669
0.71682
0.716902
0.716913
0.716856
0.716739
0.716575
0.716378
0.716155
0.715911
0.715649
0.715372
0.715084
0.714793
0.714513
0.714257
0.714049
0.713906
0.713841
0.713827
0.713733
0.713084
0.71182
0.71602
0.716264
0.71646
0.7166
0.716678
0.716691
0.716644
0.716543
0.716402
0.71623
0.716034
0.715818
0.715585
0.715338
0.715079
0.714817
0.714562
0.714323
0.714116
0.71395
0.713844
0.713746
0.713458
0.712725
0.711689
0.715848
0.716075
0.716257
0.716388
0.716462
0.716478
0.716441
0.716356
0.716235
0.716087
0.715915
0.715725
0.715519
0.715299
0.715069
0.714835
0.714604
0.714382
0.714175
0.713981
0.713802
0.713494
0.712832
0.711872
0.711114
0.715683
0.715893
0.716062
0.716185
0.716256
0.716276
0.716248
0.716178
0.716076
0.715948
0.715799
0.715632
0.715451
0.715258
0.715054
0.714846
0.714639
0.714436
0.714235
0.714019
0.713758
0.713183
0.712111
0.710634
0.71023
0.715526
0.71572
0.715877
0.715992
0.716061
0.716084
0.716065
0.716009
0.715923
0.715814
0.715684
0.715539
0.715382
0.715214
0.715036
0.714852
0.71467
0.714488
0.7143
0.714081
0.71377
0.713153
0.71165
0.709598
0.709269
0.715376
0.715555
0.715701
0.71581
0.715877
0.715903
0.715892
0.715848
0.715776
0.715684
0.715573
0.715447
0.715312
0.715167
0.715014
0.714855
0.714696
0.714539
0.714373
0.714163
0.713821
0.713101
0.711427
0.709139
0.708787
0.715236
0.7154
0.715536
0.715638
0.715703
0.715732
0.715727
0.715694
0.715636
0.715558
0.715463
0.715356
0.71524
0.715117
0.714987
0.714853
0.714719
0.714588
0.714454
0.71428
0.713984
0.71317
0.711572
0.709473
0.709192
0.715103
0.715254
0.71538
0.715476
0.715539
0.71557
0.715571
0.715547
0.7155
0.715436
0.715356
0.715266
0.715168
0.715065
0.714957
0.714846
0.714737
0.714634
0.714538
0.714416
0.714218
0.713609
0.712189
0.71023
0.70985
0.714978
0.715117
0.715233
0.715322
0.715383
0.715416
0.715422
0.715406
0.71537
0.715317
0.715252
0.715177
0.715096
0.715011
0.714923
0.714834
0.714749
0.714674
0.714615
0.714546
0.714447
0.714019
0.712813
0.710997
0.710308
0.71486
0.714986
0.715093
0.715177
0.715236
0.71527
0.71528
0.715271
0.715244
0.715202
0.715149
0.715088
0.715022
0.714954
0.714884
0.714815
0.714752
0.714702
0.714676
0.714654
0.71463
0.714325
0.713293
0.711573
0.710425
0.714747
0.714863
0.714961
0.715039
0.715096
0.71513
0.715144
0.715141
0.715122
0.715091
0.715049
0.715001
0.714948
0.714894
0.714841
0.714788
0.714744
0.714716
0.714716
0.714729
0.714748
0.714532
0.713598
0.711951
0.71039
0.71464
0.714745
0.714835
0.714908
0.714962
0.714997
0.715014
0.715016
0.715004
0.714982
0.714951
0.714914
0.714873
0.714832
0.714792
0.714755
0.714725
0.714713
0.714731
0.714765
0.7148
0.714627
0.713722
0.712072
0.710035
0.714538
0.714633
0.714715
0.714782
0.714834
0.714868
0.714888
0.714895
0.71489
0.714877
0.714855
0.714828
0.714798
0.714768
0.714739
0.714713
0.714695
0.714693
0.714718
0.714761
0.714788
0.71462
0.713716
0.712
0.709493
0.71444
0.714525
0.7146
0.714662
0.71471
0.714745
0.714767
0.714778
0.71478
0.714774
0.714761
0.714743
0.714723
0.714702
0.714682
0.714664
0.714653
0.714655
0.714679
0.714717
0.714721
0.714528
0.713625
0.711773
0.709096
0.714346
0.714421
0.714489
0.714546
0.714592
0.714626
0.71465
0.714665
0.714672
0.714673
0.714668
0.714659
0.714647
0.714634
0.714621
0.714609
0.7146
0.714601
0.714616
0.714637
0.714607
0.71438
0.713518
0.711678
0.709139
0.714255
0.714321
0.714382
0.714434
0.714477
0.71451
0.714536
0.714555
0.714567
0.714575
0.714577
0.714576
0.714571
0.714565
0.714557
0.714549
0.71454
0.714534
0.714531
0.714524
0.714452
0.714184
0.713381
0.71182
0.709549
0.714166
0.714224
0.714278
0.714325
0.714365
0.714398
0.714425
0.714447
0.714465
0.714478
0.714488
0.714494
0.714496
0.714495
0.714492
0.714485
0.714472
0.714455
0.714428
0.714383
0.714257
0.713934
0.713164
0.711798
0.710015
0.71408
0.714129
0.714176
0.714219
0.714256