/*--------------------------------*- C++ -*----------------------------------*\
| =========                 |                                                 |
| \\      /  F ield         | OpenFOAM: The Open Source CFD Toolbox           |
|  \\    /   O peration     | Version:  v1912                                 |
|   \\  /    A nd           | Website:  www.openfoam.com                      |
|    \\/     M anipulation  |                                                 |
\*---------------------------------------------------------------------------*/
FoamFile
{
    version     2.0;
    format      ascii;
    class       volScalarField;
    location    "1000";
    object      pMean;
}
// * * * * * * * * * * * * * * * * * * * * * * * * * * * * * * * * * * * * * //

dimensions      [1 -1 -2 0 0 0 0];


internalField   nonuniform List<scalar> 
9900
(
0.717091
0.717148
0.717112
0.717146
0.717116
0.71711
0.717077
0.717045
0.717006
0.716956
0.7169
0.716832
0.716754
0.716654
0.71653
0.716381
0.716216
0.716037
0.715841
0.715627
0.715388
0.715123
0.714826
0.714492
0.714142
0.715511
0.715348
0.715407
0.715288
0.71528
0.715195
0.715142
0.715068
0.71499
0.714913
0.714827
0.714744
0.714656
0.714568
0.714482
0.714397
0.714312
0.714218
0.714115
0.714014
0.713932
0.71388
0.71387
0.713904
0.714007
0.714187
0.714142
0.714152
0.714118
0.714107
0.714083
0.714069
0.714048
0.714028
0.714008
0.713989
0.713973
0.713961
0.71396
0.713974
0.714003
0.714037
0.714075
0.714116
0.714157
0.714203
0.71425
0.714296
0.714306
0.71426
0.714202
0.714268
0.714239
0.714286
0.714271
0.7143
0.714303
0.714317
0.714327
0.714333
0.71434
0.714342
0.714344
0.714345
0.714347
0.714344
0.714336
0.714329
0.714322
0.714314
0.714296
0.714257
0.714194
0.71411
0.714042
0.71454
0.714574
0.714562
0.714581
0.714576
0.714584
0.714581
0.714581
0.714578
0.714572
0.714563
0.71455
0.714533
0.71451
0.714482
0.714447
0.714408
0.714368
0.714327
0.714286
0.714243
0.7142
0.714162
0.714148
0.714161
0.714654
0.714654
0.714649
0.714637
0.714632
0.714617
0.714605
0.714588
0.714572
0.714554
0.714532
0.714509
0.714482
0.714452
0.71442
0.714385
0.714351
0.714318
0.714285
0.714252
0.714222
0.714195
0.714173
0.714154
0.71412
0.714614
0.714613
0.714607
0.714595
0.714588
0.714573
0.714559
0.714542
0.714524
0.714504
0.714483
0.71446
0.714435
0.71441
0.714384
0.714357
0.714331
0.714305
0.714279
0.714253
0.714227
0.714202
0.714175
0.714147
0.714122
0.714588
0.714588
0.714584
0.714579
0.714571
0.714563
0.71455
0.714537
0.714522
0.714505
0.714486
0.714465
0.714443
0.71442
0.714395
0.714369
0.714342
0.714315
0.714287
0.714258
0.714229
0.7142
0.71417
0.714142
0.714117
0.714603
0.714604
0.714601
0.714597
0.71459
0.714583
0.714571
0.714559
0.714544
0.714526
0.714507
0.714485
0.714462
0.714436
0.714409
0.714381
0.71435
0.714319
0.714288
0.714257
0.714225
0.714195
0.714165
0.714138
0.714113
0.714631
0.71463
0.714627
0.714622
0.714614
0.714605
0.714592
0.714577
0.714561
0.714541
0.71452
0.714496
0.71447
0.714443
0.714413
0.714382
0.714351
0.714318
0.714286
0.714253
0.714222
0.714191
0.714161
0.714133
0.714108
0.714652
0.71465
0.714646
0.714639
0.71463
0.714619
0.714605
0.714589
0.71457
0.714549
0.714526
0.714501
0.714474
0.714445
0.714415
0.714383
0.71435
0.714317
0.714284
0.714251
0.714219
0.714187
0.714157
0.714128
0.714102
0.714667
0.714665
0.71466
0.714653
0.714643
0.714631
0.714616
0.714599
0.71458
0.714558
0.714534
0.714508
0.714479
0.71445
0.714418
0.714386
0.714352
0.714318
0.714284
0.71425
0.714216
0.714184
0.714152
0.714123
0.714095
0.714683
0.714681
0.714676
0.714668
0.714658
0.714645
0.71463
0.714612
0.714592
0.714569
0.714544
0.714516
0.714487
0.714456
0.714423
0.714389
0.714355
0.714319
0.714284
0.714248
0.714213
0.714179
0.714147
0.714116
0.714088
0.714701
0.714699
0.714693
0.714686
0.714675
0.714661
0.714645
0.714626
0.714605
0.714581
0.714554
0.714526
0.714495
0.714463
0.714429
0.714393
0.714357
0.71432
0.714283
0.714246
0.71421
0.714175
0.714141
0.714109
0.71408
0.714721
0.714718
0.714713
0.714704
0.714693
0.714678
0.714661
0.714641
0.714619
0.714593
0.714566
0.714536
0.714503
0.714469
0.714434
0.714397
0.714359
0.714321
0.714282
0.714244
0.714206
0.71417
0.714135
0.714102
0.714071
0.714741
0.714739
0.714732
0.714723
0.714711
0.714696
0.714678
0.714657
0.714633
0.714606
0.714577
0.714546
0.714512
0.714476
0.714439
0.714401
0.714361
0.714321
0.714281
0.714241
0.714202
0.714164
0.714128
0.714094
0.714062
0.714763
0.71476
0.714753
0.714743
0.71473
0.714714
0.714695
0.714673
0.714648
0.71462
0.714589
0.714556
0.714521
0.714484
0.714445
0.714405
0.714364
0.714322
0.71428
0.714239
0.714198
0.714159
0.714121
0.714085
0.714052
0.714785
0.714782
0.714774
0.714764
0.714751
0.714734
0.714713
0.71469
0.714664
0.714634
0.714602
0.714568
0.714531
0.714492
0.714451
0.714409
0.714366
0.714323
0.714279
0.714236
0.714194
0.714152
0.714113
0.714076
0.714041
0.714808
0.714805
0.714797
0.714786
0.714772
0.714754
0.714733
0.714708
0.71468
0.71465
0.714616
0.71458
0.714541
0.7145
0.714458
0.714414
0.714369
0.714324
0.714278
0.714233
0.714189
0.714146
0.714105
0.714066
0.71403
0.714833
0.714829
0.714821
0.71481
0.714794
0.714776
0.714753
0.714727
0.714698
0.714666
0.71463
0.714592
0.714552
0.714509
0.714465
0.714419
0.714372
0.714325
0.714277
0.71423
0.714183
0.714139
0.714096
0.714055
0.714017
0.714858
0.714854
0.714846
0.714834
0.714818
0.714798
0.714775
0.714747
0.714717
0.714683
0.714646
0.714606
0.714563
0.714519
0.714472
0.714424
0.714375
0.714325
0.714275
0.714226
0.714178
0.714131
0.714086
0.714043
0.714004
0.714885
0.714881
0.714872
0.71486
0.714843
0.714822
0.714797
0.714768
0.714736
0.714701
0.714662
0.71462
0.714575
0.714528
0.71448
0.714429
0.714378
0.714326
0.714274
0.714222
0.714172
0.714122
0.714075
0.714031
0.713989
0.714914
0.714909
0.7149
0.714886
0.714869
0.714847
0.714821
0.714791
0.714757
0.714719
0.714678
0.714635
0.714588
0.714539
0.714488
0.714435
0.714381
0.714327
0.714272
0.714218
0.714165
0.714113
0.714064
0.714017
0.713974
0.714944
0.714939
0.714929
0.714915
0.714896
0.714873
0.714846
0.714814
0.714778
0.714739
0.714696
0.71465
0.714601
0.71455
0.714496
0.714441
0.714384
0.714327
0.71427
0.714213
0.714158
0.714104
0.714052
0.714003
0.713958
0.714975
0.71497
0.714959
0.714945
0.714925
0.714901
0.714872
0.714839
0.714801
0.71476
0.714715
0.714666
0.714615
0.714561
0.714505
0.714447
0.714388
0.714328
0.714268
0.714208
0.71415
0.714093
0.714039
0.713988
0.71394
0.715008
0.715002
0.714992
0.714976
0.714955
0.71493
0.714899
0.714864
0.714825
0.714782
0.714734
0.714684
0.71463
0.714573
0.714514
0.714453
0.714391
0.714328
0.714265
0.714203
0.714142
0.714082
0.714025
0.713971
0.713921
0.715042
0.715037
0.715025
0.715009
0.714987
0.71496
0.714928
0.714891
0.71485
0.714805
0.714755
0.714702
0.714645
0.714585
0.714523
0.71446
0.714394
0.714328
0.714262
0.714197
0.714133
0.71407
0.71401
0.713954
0.713901
0.715079
0.715073
0.715061
0.715043
0.71502
0.714992
0.714959
0.71492
0.714877
0.714829
0.714777
0.71472
0.714661
0.714598
0.714533
0.714466
0.714398
0.714329
0.714259
0.714191
0.714123
0.714058
0.713995
0.713935
0.713879
0.715117
0.715111
0.715098
0.71508
0.715056
0.715026
0.714991
0.71495
0.714904
0.714854
0.714799
0.71474
0.714678
0.714612
0.714544
0.714473
0.714402
0.714329
0.714256
0.714184
0.714113
0.714044
0.713978
0.713915
0.713857
0.715157
0.71515
0.715137
0.715118
0.715093
0.715061
0.715024
0.714982
0.714934
0.714881
0.714823
0.714761
0.714695
0.714626
0.714555
0.714481
0.714405
0.714329
0.714252
0.714176
0.714102
0.714029
0.71396
0.713894
0.713832
0.715199
0.715192
0.715178
0.715158
0.715131
0.715099
0.71506
0.715015
0.714964
0.714909
0.714848
0.714783
0.714714
0.714641
0.714566
0.714488
0.714409
0.714329
0.714248
0.714168
0.71409
0.714014
0.71394
0.713871
0.713806
0.715244
0.715236
0.715222
0.7152
0.715172
0.715138
0.715097
0.71505
0.714996
0.714938
0.714874
0.714806
0.714733
0.714657
0.714578
0.714496
0.714413
0.714328
0.714244
0.71416
0.714077
0.713997
0.71392
0.713847
0.713779
0.71529
0.715282
0.715267
0.715245
0.715215
0.715179
0.715136
0.715086
0.71503
0.714969
0.714902
0.71483
0.714754
0.714674
0.71459
0.714504
0.714417
0.714328
0.714239
0.714151
0.714064
0.713979
0.713898
0.713821
0.713749
0.715339
0.715331
0.715315
0.715291
0.71526
0.715222
0.715177
0.715125
0.715066
0.715001
0.714931
0.714855
0.714775
0.714691
0.714603
0.714513
0.714421
0.714327
0.714234
0.714141
0.714049
0.713961
0.713875
0.713794
0.713718
0.715391
0.715382
0.715365
0.71534
0.715308
0.715268
0.71522
0.715165
0.715103
0.715035
0.714961
0.714882
0.714797
0.714709
0.714616
0.714522
0.714425
0.714326
0.714228
0.71413
0.714034
0.713941
0.71385
0.713765
0.713685
0.715445
0.715436
0.715418
0.715392
0.715358
0.715315
0.715265
0.715207
0.715143
0.715071
0.714993
0.714909
0.714821
0.714727
0.71463
0.714531
0.714429
0.714325
0.714222
0.714119
0.714018
0.713919
0.713824
0.713734
0.713649
0.715502
0.715492
0.715474
0.715446
0.71541
0.715366
0.715313
0.715252
0.715184
0.715108
0.715026
0.714938
0.714845
0.714747
0.714645
0.71454
0.714433
0.714324
0.714215
0.714107
0.714
0.713897
0.713797
0.713701
0.713612
0.715562
0.715552
0.715532
0.715503
0.715465
0.715418
0.715363
0.715299
0.715227
0.715148
0.715061
0.714969
0.714871
0.714768
0.71466
0.71455
0.714437
0.714323
0.714208
0.714094
0.713982
0.713872
0.713767
0.713667
0.713572
0.715625
0.715614
0.715594
0.715563
0.715523
0.715474
0.715415
0.715348
0.715272
0.715189
0.715098
0.715001
0.714898
0.714789
0.714676
0.71456
0.714441
0.714321
0.7142
0.71408
0.713962
0.713847
0.713736
0.71363
0.71353
0.715691
0.71568
0.715658
0.715626
0.715584
0.715532
0.715471
0.7154
0.71532
0.715232
0.715137
0.715034
0.714926
0.714811
0.714693
0.71457
0.714445
0.714319
0.714192
0.714065
0.713941
0.71382
0.713703
0.713591
0.713486
0.715761
0.715749
0.715726
0.715693
0.715648
0.715594
0.715529
0.715454
0.71537
0.715278
0.715177
0.715069
0.714955
0.714835
0.71471
0.714581
0.714449
0.714316
0.714183
0.71405
0.713919
0.713791
0.713668
0.71355
0.713439
0.715834
0.715822
0.715798
0.715762
0.715716
0.715658
0.71559
0.715511
0.715423
0.715326
0.71522
0.715106
0.714986
0.714859
0.714728
0.714592
0.714454
0.714314
0.714173
0.714033
0.713895
0.713761
0.71363
0.713506
0.713389
0.715911
0.715898
0.715873
0.715836
0.715786
0.715726
0.715654
0.715571
0.715478
0.715376
0.715264
0.715145
0.715018
0.714885
0.714746
0.714604
0.714458
0.714311
0.714163
0.714015
0.71387
0.713728
0.713591
0.71346
0.713336
0.715992
0.715979
0.715952
0.715913
0.715861
0.715797
0.715721
0.715634
0.715536
0.715428
0.715311
0.715185
0.715052
0.714911
0.714766
0.714616
0.714462
0.714307
0.714151
0.713996
0.713843
0.713694
0.713549
0.713411
0.71328
0.716077
0.716063
0.716035
0.715994
0.715939
0.715872
0.715792
0.7157
0.715597
0.715484
0.71536
0.715227
0.715087
0.714939
0.714786
0.714628
0.714466
0.714303
0.714139
0.713976
0.713815
0.713658
0.713505
0.71336
0.713222
0.716167
0.716152
0.716123
0.716079
0.716022
0.715951
0.715866
0.71577
0.715661
0.715541
0.715411
0.715272
0.715124
0.714968
0.714807
0.71464
0.714471
0.714299
0.714126
0.713954
0.713785
0.713619
0.713459
0.713305
0.71316
0.716261
0.716246
0.716215
0.716169
0.716108
0.716033
0.715945
0.715843
0.715728
0.715602
0.715465
0.715318
0.715162
0.714998
0.714828
0.714653
0.714475
0.714294
0.714112
0.713931
0.713753
0.713579
0.71341
0.713248
0.713094
0.716361
0.716344
0.716311
0.716263
0.716199
0.71612
0.716027
0.715919
0.715799
0.715666
0.715521
0.715366
0.715202
0.71503
0.714851
0.714667
0.714479
0.714288
0.714097
0.713907
0.713719
0.713536
0.713358
0.713187
0.713025
0.716465
0.716448
0.716413
0.716362
0.716295
0.716212
0.716113
0.716
0.715873
0.715733
0.71558
0.715417
0.715244
0.715063
0.714874
0.71468
0.714482
0.714282
0.714081
0.713881
0.713683
0.71349
0.713303
0.713123
0.712952
0.716575
0.716557
0.71652
0.716466
0.716395
0.716308
0.716204
0.716084
0.71595
0.715803
0.715642
0.71547
0.715288
0.715097
0.714899
0.714694
0.714486
0.714275
0.714064
0.713853
0.713645
0.713442
0.713245
0.713055
0.712875
0.716691
0.716671
0.716633
0.716576
0.716501
0.716409
0.716299
0.716173
0.716032
0.715876
0.715707
0.715526
0.715334
0.715132
0.714924
0.714709
0.714489
0.714268
0.714045
0.713823
0.713605
0.713391
0.713183
0.712984
0.712794
0.716812
0.716792
0.716751
0.716692
0.716612
0.716515
0.716399
0.716266
0.716117
0.715953
0.715775
0.715584
0.715381
0.715169
0.714949
0.714723
0.714492
0.714259
0.714025
0.713792
0.713562
0.713337
0.713118
0.712908
0.712708
0.71694
0.716919
0.716876
0.716813
0.716729
0.716626
0.716504
0.716364
0.716207
0.716033
0.715845
0.715644
0.715431
0.715208
0.714976
0.714738
0.714495
0.714249
0.714003
0.713758
0.713516
0.71328
0.71305
0.712829
0.712618
0.717075
0.717052
0.717007
0.716941
0.716852
0.716744
0.716615
0.716467
0.716301
0.716118
0.71592
0.715707
0.715483
0.715247
0.715003
0.714753
0.714497
0.714239
0.71398
0.713722
0.713468
0.713219
0.712977
0.712745
0.712523
0.717217
0.717193
0.717145
0.717075
0.716982
0.716867
0.716731
0.716574
0.716399
0.716206
0.715997
0.715773
0.715536
0.715288
0.715031
0.714767
0.714498
0.714227
0.713954
0.713683
0.713416
0.713154
0.7129
0.712656
0.712422
0.717366
0.717341
0.71729
0.717216
0.717118
0.716996
0.716852
0.716687
0.716502
0.716299
0.716078
0.715842
0.715592
0.715331
0.71506
0.714782
0.714499
0.714213
0.713927
0.713642
0.713361
0.713086
0.712819
0.712562
0.712317
0.717523
0.717496
0.717443
0.717364
0.71726
0.717132
0.71698
0.716806
0.71661
0.716395
0.716162
0.715913
0.71565
0.715375
0.71509
0.714797
0.714499
0.714198
0.713897
0.713598
0.713303
0.713014
0.712733
0.712463
0.712205
0.717688
0.71766
0.717604
0.717521
0.717411
0.717275
0.717114
0.71693
0.716724
0.716497
0.716251
0.715988
0.71571
0.71542
0.71512
0.714811
0.714498
0.714181
0.713865
0.71355
0.71324
0.712937
0.712643
0.712359
0.712088
0.717862
0.717832
0.717773
0.717685
0.717569
0.717425
0.717255
0.71706
0.716842
0.716602
0.716343
0.716065
0.715772
0.715466
0.71515
0.714825
0.714495
0.714163
0.71383
0.713499
0.713174
0.712855
0.712546
0.712249
0.711964
0.718045
0.718014
0.717951
0.717857
0.717734
0.717583
0.717403
0.717197
0.716966
0.716713
0.716439
0.716146
0.715837
0.715514
0.715181
0.714839
0.714491
0.714141
0.713791
0.713444
0.713103
0.712768
0.712444
0.712132
0.711833
0.718238
0.718204
0.718138
0.718039
0.717909
0.717748
0.717558
0.71734
0.717096
0.716828
0.716539
0.716229
0.715903
0.715563
0.715211
0.714851
0.714486
0.714118
0.71375
0.713385
0.713026
0.712676
0.712336
0.712008
0.711695
0.718441
0.718405
0.718335
0.71823
0.718092
0.717922
0.717721
0.71749
0.717232
0.716949
0.716643
0.716316
0.715972
0.715613
0.715242
0.714863
0.714478
0.714091
0.713704
0.713321
0.712945
0.712577
0.712221
0.711878
0.71155
0.718654
0.718616
0.718542
0.718431
0.718285
0.718104
0.717891
0.717647
0.717374
0.717074
0.716751
0.716406
0.716042
0.715663
0.715272
0.714873
0.714468
0.714061
0.713655
0.713253
0.712858
0.712472
0.712099
0.71174
0.711396
0.718879
0.718839
0.71876
0.718642
0.718487
0.718296
0.71807
0.717812
0.717522
0.717205
0.716863
0.716498
0.716114
0.715714
0.715302
0.714881
0.714455
0.714027
0.7136
0.713178
0.712764
0.71236
0.711969
0.711593
0.711234
0.719115
0.719072
0.718989
0.718864
0.7187
0.718497
0.718257
0.717984
0.717677
0.717342
0.716979
0.716594
0.716188
0.715766
0.715331
0.714888
0.714439
0.713989
0.71354
0.713098
0.712663
0.71224
0.711831
0.711438
0.711062
0.719364
0.719319
0.71923
0.719097
0.718923
0.718708
0.718454
0.718163
0.717839
0.717483
0.7171
0.716692
0.716263
0.715818
0.715359
0.714892
0.714419
0.713945
0.713475
0.71301
0.712555
0.712112
0.711684
0.711273
0.710881
0.719625
0.719577
0.719483
0.719342
0.719157
0.718929
0.718659
0.718351
0.718007
0.717631
0.717225
0.716793
0.71634
0.715869
0.715385
0.714892
0.714395
0.713897
0.713402
0.712915
0.712438
0.711975
0.711527
0.711098
0.710689
0.7199
0.71985
0.719749
0.7196
0.719403
0.719161
0.718875
0.718548
0.718183
0.717784
0.717354
0.716897
0.716418
0.71592
0.715409
0.71489
0.714366
0.713842
0.713323
0.712811
0.712312
0.711827
0.71136
0.710912
0.710485
0.72019
0.720136
0.720029
0.71987
0.719661
0.719404
0.7191
0.718753
0.718366
0.717942
0.717486
0.717003
0.716496
0.71597
0.715431
0.714883
0.714331
0.71378
0.713235
0.712698
0.712175
0.711669
0.711181
0.710714
0.71027
0.720495
0.720437
0.720323
0.720155
0.719932
0.719658
0.719335
0.718966
0.718555
0.718106
0.717623
0.71711
0.716574
0.716018
0.715449
0.714871
0.71429
0.71371
0.713137
0.712575
0.712028
0.711498
0.710989
0.710503
0.710041
0.720815
0.720754
0.720633
0.720453
0.720216
0.719925
0.719581
0.719189
0.718753
0.718276
0.717763
0.71722
0.716652
0.716064
0.715462
0.714853
0.714241
0.713631
0.713029
0.71244
0.711868
0.711315
0.710784
0.710278
0.709798
0.721152
0.721087
0.720958
0.720766
0.720514
0.720203
0.719838
0.719421
0.718957
0.71845
0.717906
0.71733
0.716728
0.716107
0.715471
0.714828
0.714183
0.713542
0.71291
0.712293
0.711694
0.711116
0.710564
0.710038
0.70954
0.721505
0.721436
0.721299
0.721094
0.720826
0.720495
0.720106
0.719662
0.719168
0.71863
0.718052
0.717441
0.716804
0.716145
0.715473
0.714794
0.714115
0.713441
0.712777
0.71213
0.711504
0.710902
0.710327
0.709781
0.709265
0.721877
0.721803
0.721657
0.721439
0.721152
0.7208
0.720385
0.719912
0.719387
0.718814
0.718201
0.717552
0.716876
0.716179
0.715469
0.714752
0.714035
0.713326
0.71263
0.711952
0.711298
0.71067
0.710072
0.709506
0.708972
0.722268
0.722189
0.722032
0.7218
0.721494
0.721118
0.720676
0.720172
0.719613
0.719003
0.718351
0.717662
0.716945
0.716206
0.715455
0.714698
0.713943
0.713197
0.712466
0.711756
0.711073
0.710419
0.709798
0.709211
0.70866
0.722677
0.722593
0.722426
0.722178
0.721851
0.721449
0.720978
0.720441
0.719844
0.719196
0.718501
0.71777
0.717008
0.716226
0.715431
0.714631
0.713835
0.71305
0.712283
0.71154
0.710826
0.710146
0.709501
0.708894
0.708326
0.723107
0.723017
0.722838
0.722573
0.722224
0.721795
0.721291
0.720718
0.720082
0.719391
0.718652
0.717874
0.717066
0.716236
0.715394
0.714549
0.71371
0.712884
0.712079
0.711301
0.710557
0.709849
0.709181
0.708554
0.707969
0.723558
0.723461
0.72327
0.722986
0.722613
0.722154
0.721616
0.721004
0.720325
0.719588
0.718802
0.717974
0.717115
0.716235
0.715343
0.71445
0.713565
0.712696
0.711851
0.711038
0.710261
0.709525
0.708834
0.708187
0.707587
0.72403
0.723927
0.723722
0.723418
0.723018
0.722527
0.721952
0.721298
0.720573
0.719787
0.718948
0.718067
0.717154
0.71622
0.715276
0.714331
0.713397
0.712483
0.711596
0.710745
0.709936
0.709172
0.708457
0.707792
0.707177
0.724523
0.724413
0.724193
0.723867
0.723439
0.722914
0.722298
0.721598
0.720824
0.719985
0.71909
0.718152
0.717181
0.716189
0.715188
0.714189
0.713203
0.712241
0.711311
0.710421
0.709578
0.708786
0.708048
0.707365
0.706736
0.725039
0.72492
0.724685
0.724335
0.723877
0.723314
0.722654
0.721905
0.721077
0.72018
0.719226
0.718225
0.717192
0.716138
0.715076
0.714019
0.712979
0.711967
0.710991
0.710062
0.709184
0.708364
0.707602
0.706902
0.706262
0.725577
0.72545
0.725197
0.724822
0.724329
0.723726
0.723018
0.722217
0.721331
0.720372
0.719352
0.718285
0.717185
0.716064
0.714938
0.713819
0.712721
0.711655
0.710633
0.709661
0.708749
0.7079
0.707117
0.706401
0.705751
0.726137
0.726001
0.725729
0.725326
0.724797
0.724149
0.72339
0.722531
0.721582
0.720556
0.719466
0.718327
0.717155
0.715963
0.714767
0.713583
0.712424
0.711302
0.71023
0.709216
0.708268
0.707391
0.706587
0.705858
0.7052
0.726719
0.726572
0.72628
0.725847
0.725279
0.724583
0.723768
0.722846
0.721829
0.72073
0.719564
0.718348
0.717098
0.715829
0.71456
0.713305
0.712081
0.7109
0.709776
0.708719
0.707735
0.70683
0.706007
0.705266
0.704604
0.727323
0.727164
0.72685
0.726384
0.725772
0.725024
0.724149
0.723159
0.722067
0.72089
0.719642
0.718342
0.717008
0.715657
0.714309
0.712979
0.711686
0.710444
0.709266
0.708163
0.707144
0.706212
0.705372
0.704622
0.703959
0.727945
0.727775
0.727436
0.726934
0.726276
0.725471
0.724529
0.723465
0.722294
0.721031
0.719695
0.718304
0.71688
0.71544
0.714007
0.712598
0.711231
0.709924
0.708691
0.707542
0.706486
0.70553
0.704675
0.70392
0.70326
0.728586
0.728402
0.728037
0.727496
0.726787
0.725919
0.724906
0.723762
0.722503
0.721147
0.719715
0.718227
0.716705
0.71517
0.713645
0.712151
0.710708
0.709333
0.708041
0.706845
0.705755
0.704775
0.703908
0.703151
0.7025
0.729241
0.729043
0.728649
0.728065
0.7273
0.726366
0.725274
0.724042
0.722688
0.721232
0.719696
0.718102
0.716474
0.714837
0.713215
0.71163
0.710105
0.708658
0.707307
0.706063
0.704938
0.703938
0.703063
0.70231
0.701674
0.729908
0.729694
0.729268
0.728638
0.727812
0.726804
0.725627
0.7243
0.722843
0.721277
0.719627
0.717919
0.716178
0.71443
0.712703
0.711022
0.70941
0.707889
0.706475
0.705184
0.704027
0.703008
0.702131
0.701389
0.700775
0.73058
0.730349
0.729889
0.729208
0.728316
0.727227
0.725957
0.724526
0.722956
0.721272
0.719499
0.717666
0.715802
0.713935
0.712096
0.710312
0.708609
0.707009
0.705532
0.704194
0.703007
0.701976
0.701102
0.700379
0.699799
0.731252
0.731001
0.730503
0.729766
0.728802
0.727625
0.726253
0.724709
0.723017
0.721203
0.719297
0.717329
0.715332
0.713337
0.711376
0.709484
0.707685
0.706004
0.704463
0.703079
0.701865
0.700828
0.699966
0.699275
0.698745
0.731912
0.731641
0.731102
0.730304
0.72926
0.727987
0.726505
0.724837
0.723011
0.721056
0.719005
0.716892
0.714751
0.712615
0.710527
0.708519
0.70662
0.704855
0.70325
0.701825
0.700592
0.699557
0.698723
0.698087
0.697623
0.73255
0.732256
0.731672
0.730807
0.729677
0.728299
0.726695
0.724892
0.722921
0.720813
0.718605
0.716333
0.714039
0.71175
0.709527
0.707401
0.705397
0.703548
0.701884
0.700426
0.699185
0.698172
0.697397
0.696833
0.696455
0.73315
0.732831
0.732198
0.731261
0.730035
0.728542
0.726806
0.724857
0.722727
0.720454
0.718075
0.715635
0.71318
0.710721
0.70836
0.706118
0.704012
0.702084
0.700372
0.698896
0.697675
0.696714
0.696009
0.695545
0.695303
0.733693
0.733347
0.73266
0.731644
0.730316
0.728699
0.72682
0.724712
0.722415
0.719965
0.717404
0.714787
0.712155
0.70954
0.707028
0.704683
0.70249
0.700499
0.698759
0.697295
0.696121
0.69524
0.694646
0.694322
0.694239
0.734158
0.733783
0.733039
0.731939
0.730503
0.728755
0.726727
0.724455
0.721984
0.719357
0.716608
0.713819
0.711032
0.708281
0.705619
0.703159
0.700907
0.698893
0.697162
0.695744
0.694652
0.693884
0.69343
0.693262
0.693341
0.734542
0.734138
0.733338
0.732156
0.730613
0.728738
0.726565
0.724133
0.721496
0.718708
0.715801
0.71284
0.709919
0.707064
0.704313
0.701756
0.699472
0.697468
0.695779
0.694433
0.69344
0.692793
0.692471
0.692437
0.692647
0.73489
0.734463
0.733617
0.732368
0.730739
0.728761
0.726472
0.723916
0.721146
0.718225
0.715205
0.712134
0.709098
0.706153
0.703353
0.700776
0.698474
0.696482
0.694829
0.693537
0.692612
0.692042
0.691799
0.691843
0.692124
0.735191
0.734752
0.733881
0.732595
0.730919
0.728887
0.726537
0.723915
0.721077
0.718085
0.714999
0.711874
0.708786
0.705801
0.702968
0.700362
0.69804
0.696039
0.694387
0.693102
0.692188
0.691632
0.691405
0.691467
0.691768
0.713849
0.714047
0.71417
0.714161
0.714119
0.714092
0.714075
0.714059
0.714043
0.714026
0.714012
0.713999
0.713989
0.713981
0.713976
0.71397
0.713964
0.713955
0.713947
0.713929
0.71392
0.713869
0.713897
0.713656
0.713469
0.714045
0.714082
0.714145
0.714142
0.714109
0.714084
0.714068
0.714052
0.714037
0.714022
0.714009
0.713999
0.71399
0.713983
0.713977
0.713972
0.713966
0.713958
0.71395
0.713934
0.713925
0.713878
0.713891
0.713598
0.713406
0.714088
0.714073
0.714117
0.714124
0.714101
0.714077
0.714061
0.714047
0.714032
0.714018
0.714007
0.713997
0.713989
0.713983
0.713978
0.713974
0.713968
0.713961
0.713953
0.713938
0.713931
0.713886
0.713893
0.713575
0.713363
0.714069
0.71408
0.714104
0.714109
0.71409
0.714069
0.714053
0.71404
0.714026
0.714014
0.714004
0.713995
0.713989
0.713983
0.713979
0.713975
0.713971
0.713965
0.713958
0.713944
0.713937
0.713892
0.71389
0.713534
0.713299
0.714118
0.714095
0.714096
0.714094
0.714079
0.71406
0.714045
0.714032
0.71402
0.714009
0.714
0.713993
0.713987
0.713983
0.71398
0.713977
0.713974
0.713969
0.713963
0.713952
0.713944
0.7139
0.713886
0.713482
0.713215
0.714095
0.714082
0.714081
0.714079
0.714067
0.714051
0.714037
0.714025
0.714014
0.714004
0.713996
0.71399
0.713986
0.713983
0.713981
0.713979
0.713978
0.713974
0.71397
0.71396
0.713954
0.713911
0.713883
0.71342
0.713114
0.714101
0.714086
0.714078
0.71407
0.714057
0.714042
0.714028
0.714017
0.714007
0.713998
0.713992
0.713987
0.713984
0.713982
0.713982
0.713982
0.713981
0.71398
0.713978
0.713971
0.713965
0.713926
0.713879
0.713356
0.713004
0.714096
0.714079
0.714067
0.714057
0.714045
0.714031
0.714019
0.714008
0.713999
0.713992
0.713987
0.713983
0.713982
0.713982
0.713983
0.713984
0.713986
0.713986
0.713986
0.713982
0.713978
0.713942
0.713872
0.713294
0.712889
0.714091
0.714073
0.714059
0.714047
0.714035
0.714022
0.714009
0.713999
0.713991
0.713985
0.713981
0.713979
0.713979
0.71398
0.713983
0.713986
0.71399
0.713993
0.713995
0.713994
0.713992
0.71396
0.713863
0.713231
0.712775
0.714085
0.714066
0.71405
0.714036
0.714023
0.714011
0.713999
0.71399
0.713983
0.713978
0.713975
0.713975
0.713976
0.713979
0.713983
0.713988
0.713994
0.713999
0.714004
0.714007
0.714006
0.713976
0.713849
0.713166
0.712664
0.714078
0.714058
0.714041
0.714026
0.714012
0.714
0.713989
0.71398
0.713974
0.71397
0.713969
0.71397
0.713972
0.713977
0.713983
0.71399
0.713998
0.714006
0.714013
0.714019
0.71402
0.71399
0.713829
0.713097
0.712555
0.714071
0.714049
0.714031
0.714015
0.714001
0.713989
0.713978
0.71397
0.713965
0.713962
0.713962
0.713964
0.713968
0.713975
0.713983
0.713992
0.714002
0.714013
0.714023
0.714031
0.714033
0.714002
0.713805
0.713023
0.712446
0.714063
0.71404
0.71402
0.714003
0.713989
0.713977
0.713967
0.713959
0.713955
0.713953
0.713954
0.713957
0.713964
0.713972
0.713982
0.713994
0.714006
0.714019
0.714032
0.714043
0.714046
0.714011
0.713775
0.712943
0.712332
0.714053
0.71403
0.714009
0.713991
0.713976
0.713964
0.713954
0.713947
0.713944
0.713943
0.713945
0.71395
0.713958
0.713969
0.713981
0.713995
0.71401
0.714026
0.714042
0.714055
0.714059
0.714016
0.713737
0.712857
0.712211
0.714044
0.714019
0.713997
0.713979
0.713963
0.713951
0.713941
0.713935
0.713932
0.713932
0.713936
0.713942
0.713952
0.713964
0.713979
0.713996
0.714014
0.714033
0.714052
0.714067
0.714071
0.714017
0.713694
0.712766
0.712087
0.714033
0.714007
0.713985
0.713965
0.713949
0.713937
0.713927
0.713921
0.713919
0.71392
0.713925
0.713934
0.713945
0.71396
0.713977
0.713996
0.714017
0.714039
0.714061
0.714079
0.714084
0.714017
0.713645
0.712673
0.71196
0.714022
0.713995
0.713971
0.713951
0.713934
0.713922
0.713912
0.713907
0.713905
0.713908
0.713914
0.713924
0.713937
0.713954
0.713974
0.713996
0.71402
0.714045
0.714071
0.714092
0.714096
0.714014
0.713593
0.712578
0.711832
0.71401
0.713981
0.713957
0.713936
0.713919
0.713905
0.713896
0.713891
0.71389
0.713894
0.713901
0.713913
0.713928
0.713947
0.71397
0.713995
0.714022
0.714051
0.714081
0.714104
0.714108
0.714007
0.713537
0.712481
0.711705
0.713997
0.713967
0.713941
0.713919
0.713902
0.713888
0.713879
0.713874
0.713874
0.713879
0.713888
0.713901
0.713918
0.71394
0.713965
0.713993
0.714024
0.714056
0.71409
0.714115
0.714118
0.713995
0.713475
0.712381
0.711579
0.713983
0.713952
0.713925
0.713902
0.713884
0.71387
0.713861
0.713856
0.713857
0.713862
0.713872
0.713887
0.713907
0.713931
0.713958
0.71399
0.714024
0.714061
0.714098
0.714126
0.714126
0.713979
0.713408
0.712276
0.711452
0.713968
0.713935
0.713907
0.713883
0.713864
0.71385
0.713841
0.713837
0.713838
0.713844
0.713856
0.713872
0.713894
0.71392
0.713951
0.713986
0.714024
0.714064
0.714105
0.714135
0.714131
0.713956
0.713333
0.712169
0.711327
0.713952
0.713918
0.713888
0.713863
0.713843
0.713829
0.713819
0.713816
0.713817
0.713825
0.713838
0.713856
0.71388
0.713909
0.713942
0.71398
0.714022
0.714066
0.714111
0.714142
0.714133
0.713927
0.713253
0.71206
0.711203
0.713934
0.713899
0.713868
0.713842
0.713821
0.713806
0.713796
0.713793
0.713795
0.713803
0.713818
0.713838
0.713864
0.713895
0.713932
0.713973
0.714019
0.714067
0.714115
0.714147
0.71413
0.713891
0.713168
0.711951
0.711083
0.713916
0.713879
0.713846
0.713819
0.713797
0.713781
0.713772
0.713768
0.713771
0.71378
0.713796
0.713818
0.713846
0.71388
0.71392
0.713965
0.714014
0.714067
0.714117
0.71415
0.714123
0.71385
0.713079
0.711843
0.710966
0.713896
0.713857
0.713823
0.713794
0.713772
0.713755
0.713745
0.713742
0.713745
0.713755
0.713772
0.713796
0.713826
0.713863
0.713906
0.713955
0.714008
0.714064
0.714118
0.71415
0.714111
0.713802
0.712985
0.711735
0.710852
0.713875
0.713834
0.713798
0.713768
0.713744
0.713727
0.713716
0.713713
0.713717
0.713728
0.713746
0.713772
0.713805
0.713844
0.71389
0.713943
0.714
0.71406
0.714116
0.714148
0.714095
0.713748
0.712888
0.711625
0.710741
0.713853
0.713809
0.713772
0.71374
0.713715
0.713697
0.713686
0.713682
0.713686
0.713698
0.713718
0.713745
0.71378
0.713823
0.713872
0.713929
0.71399
0.714054
0.714112
0.714143
0.714074
0.713689
0.712785
0.711515
0.71063
0.713829
0.713783
0.713743
0.71371
0.713683
0.713664
0.713653
0.713649
0.713653
0.713666
0.713687
0.713716
0.713754
0.713799
0.713852
0.713912
0.713977
0.714045
0.714105
0.714134
0.714046
0.713626
0.71268
0.711404
0.71052
0.713803
0.713755
0.713713
0.713678
0.71365
0.713629
0.713617
0.713613
0.713618
0.713631
0.713653
0.713684
0.713724
0.713773
0.713829
0.713893
0.713962
0.714034
0.714096
0.714121
0.714013
0.713557
0.712571
0.711291
0.710411
0.713776
0.713725
0.713681
0.713643
0.713614
0.713592
0.713579
0.713575
0.713579
0.713593
0.713617
0.71365
0.713692
0.713743
0.713803
0.713871
0.713945
0.71402
0.714083
0.714104
0.713973
0.713482
0.712458
0.711177
0.710302
0.713747
0.713693
0.713646
0.713607
0.713575
0.713552
0.713538
0.713533
0.713538
0.713553
0.713577
0.713612
0.713656
0.713711
0.713774
0.713846
0.713924
0.714003
0.714067
0.714082
0.713926
0.713399
0.712342
0.711062
0.710193
0.713716
0.713659
0.71361
0.713568
0.713534
0.71351
0.713495
0.713489
0.713494
0.713509
0.713534
0.713571
0.713617
0.713675
0.713742
0.713818
0.713899
0.713982
0.714046
0.714054
0.713873
0.713311
0.712223
0.710946
0.710085
0.713683
0.713623
0.713571
0.713526