/*--------------------------------*- C++ -*----------------------------------*\
| =========                 |                                                 |
| \\      /  F ield         | OpenFOAM: The Open Source CFD Toolbox           |
|  \\    /   O peration     | Version:  v1912                                 |
|   \\  /    A nd           | Website:  www.openfoam.com                      |
|    \\/     M anipulation  |                                                 |
\*---------------------------------------------------------------------------*/
FoamFile
{
    version     2.0;
    format      ascii;
    class       volScalarField;
    location    "1000";
    object      rho;
}
// * * * * * * * * * * * * * * * * * * * * * * * * * * * * * * * * * * * * * //

dimensions      [1 -3 0 0 0 0 0];


internalField   nonuniform List<scalar> 
9900
(
1.00373
1.00383
1.0041
1.00416
1.00428
1.00431
1.00429
1.00421
1.00408
1.00386
1.00358
1.00323
1.00283
1.00237
1.00182
1.00123
1.00067
1.0002
0.999897
0.999777
1.00002
1.00074
1.00211
1.00452
1.00777
1.00168
1.00141
1.00153
1.00137
1.00134
1.00119
1.00109
1.00089
1.00072
1.00051
1.00032
1.00013
0.999953
0.999825
0.999752
0.99975
0.999818
0.999953
1.00021
1.00072
1.00143
1.00233
1.00319
1.00299
1.00106
1.00002
1.00002
0.999854
0.999915
0.99972
0.999693
0.999555
0.999441
0.999314
0.9992
0.999111
0.999067
0.999063
0.999101
0.999219
0.99943
0.999717
1.00009
1.00052
1.00104
1.00153
1.00188
1.00216
1.00227
1.00292
1.00006
1.00017
1.00006
1.00013
1.00008
1.00007
0.999998
0.99996
0.99987
0.999796
0.999735
0.999706
0.999711
0.999731
0.99978
0.999857
0.999985
1.00019
1.00047
1.00073
1.00096
1.00125
1.00174
1.0024
1.00314
1.00049
1.00055
1.00051
1.0005
1.00048
1.00041
1.00036
1.0003
1.00023
1.00016
1.00009
1.00003
0.999973
0.99991
0.999875
0.999873
0.999905
0.999974
1.00008
1.00025
1.00055
1.00104
1.0017
1.00239
1.00297
1.00064
1.00061
1.00059
1.00052
1.00048
1.00038
1.0003
1.0002
1.0001
1.00001
0.999924
0.999828
0.99973
0.99963
0.99954
0.999482
0.999473
0.999535
0.999683
0.999964
1.00041
1.00103
1.00175
1.00245
1.00312
1.00057
1.00051
1.00047
1.00038
1.00032
1.00021
1.00009
0.999974
0.99984
0.999712
0.999589
0.999461
0.999325
0.999198
0.999102
0.999073
0.999124
0.999267
0.999522
0.999924
1.00047
1.00114
1.00185
1.00254
1.00315
1.00051
1.00042
1.00036
1.00026
1.00015
1.00002
0.999878
0.999739
0.999569
0.999404
0.99925
0.999104
0.998973
0.998887
0.998857
0.998896
0.99902
0.999244
0.999591
1.00007
1.00065
1.00127
1.0019
1.00251
1.00307
1.0005
1.00039
1.00029
1.00016
1.00001
0.999846
0.999674
0.999501
0.999317
0.999144
0.998992
0.998875
0.9988
0.99877
0.9988
0.998903
0.999098
0.999391
0.999785
1.00027
1.00079
1.00132
1.00184
1.00237
1.00291
1.00049
1.00037
1.00022
1.00006
0.99989
0.999706
0.999515
0.999326
0.999145
0.998989
0.998868
0.998786
0.998751
0.998773
0.998863
0.999029
0.99927
0.999585
0.999967
1.00039
1.00082
1.00125
1.0017
1.0022
1.00273
1.00048
1.00035
1.00016
0.999984
0.999798
0.999607
0.999412
0.999225
0.999058
0.998925
0.998834
0.998789
0.998801
0.998869
0.998999
0.999187
0.999432
0.999725
1.00005
1.00039
1.00074
1.00112
1.00155
1.00204
1.00255
1.00047
1.00033
1.00012
0.999928
0.999742
0.999555
0.999367
0.999192
0.999047
0.99894
0.998878
0.998866
0.998905
0.998995
0.999131
0.999313
0.99953
0.999768
1.00002
1.0003
1.00061
1.00098
1.00141
1.0019
1.00238
1.00046
1.00032
1.0001
0.999902
0.999721
0.999546
0.999372
0.999214
0.999088
0.999003
0.998962
0.998966
0.999014
0.999101
0.999229
0.999378
0.999545
0.999734
0.999941
1.00018
1.00048
1.00085
1.00131
1.00179
1.00222
1.00047
1.00031
1.0001
0.999902
0.999727
0.999563
0.999405
0.999262
0.999151
0.999079
0.999046
0.999054
0.999096
0.999178
0.999265
0.999376
0.999508
0.999658
0.999835
1.00006
1.00037
1.00077
1.00122
1.00168
1.00204
1.00047
1.0003
1.00011
0.999917
0.999745
0.99959
0.999444
0.999313
0.99921
0.999142
0.99911
0.999111
0.999145
0.999186
0.999256
0.99934
0.99944
0.999566
0.999737
0.999977
1.0003
1.00071
1.00115
1.00155
1.00186
1.00047
1.0003
1.00012
0.999933
0.999764
0.999614
0.999475
0.99935
0.99925
0.999181
0.999143
0.999134
0.999144
0.999175
0.999219
0.999279
0.999362
0.999485
0.999666
0.999924
1.00026
1.00066
1.00107
1.00142
1.00166
1.00045
1.00029
1.00012
0.999945
0.999778
0.99963
0.999493
0.999371
0.99927
0.999195
0.999149
0.999128
0.999125
0.999137
0.999164
0.999213
0.999296
0.99943
0.999629
0.999904
1.00025
1.00062
1.00098
1.00127
1.00146
1.00043
1.00027
1.00012
0.999949
0.999785
0.999636
0.9995
0.999377
0.999272
0.999192
0.999137
0.999103
0.999088
0.99909
0.999111
0.999163
0.999257
0.999407
0.999625
0.999906
1.00024
1.00058
1.00088
1.0011
1.00126
1.00042
1.00026
1.00011
0.999948
0.999787
0.999637
0.999499
0.999374
0.999265
0.999179
0.999115
0.999074
0.999052
0.999051
0.999077
0.999139
0.999249
0.999415
0.999641
0.999919
1.00022
1.00051
1.00076
1.00094
1.00107
1.0004
1.00025
1.00011
0.999946
0.999787
0.999636
0.999497
0.999369
0.999257
0.999166
0.999097
0.999052
0.999029
0.999033
0.999069
0.999145
0.999268
0.999444
0.999668
0.999929
1.0002
1.00044
1.00063
1.00078
1.00089
1.0004
1.00025
1.0001
0.999947
0.999789
0.999638
0.999497
0.999368
0.999255
0.999162
0.999092
0.999047
0.999029
0.999041
0.999088
0.999175
0.999307
0.999484
0.999698
0.999931
1.00016
1.00035
1.00051
1.00062
1.00073
1.00041
1.00026
1.00011
0.999953
0.999797
0.999647
0.999505
0.999376
0.999264
0.999172
0.999104
0.999063
0.999051
0.999072
0.999128
0.999222
0.999356
0.999525
0.999722
0.999923
1.00011
1.00026
1.00038
1.00048
1.00059
1.00042
1.00027
1.00012
0.999967
0.999813
0.999664
0.999524
0.999397
0.999287
0.999199
0.999135
0.999099
0.999094
0.999122
0.999183
0.999279
0.999408
0.999564
0.999733
0.999901
1.00005
1.00017
1.00026
1.00034
1.00045
1.00044
1.0003
1.00014
0.99999
0.999838
0.999691
0.999553
0.99943
0.999325
0.999241
0.999182
0.999152
0.999152
0.999183
0.999245
0.999337
0.999455
0.999593
0.999734
0.999867
0.99998
1.00007
1.00014
1.00023
1.00034
1.00047
1.00032
1.00017
1.00002
0.999872
0.999728
0.999594
0.999475
0.999374
0.999296
0.999243
0.999216
0.999219
0.99925
0.999309
0.999392
0.999497
0.999608
0.999722
0.999825
0.999909
0.999976
1.00004
1.00012
1.00023
1.0005
1.00036
1.00021
1.00006
0.999914
0.999774
0.999644
0.999529
0.999434
0.999361
0.999311
0.999288
0.99929
0.999318
0.99937
0.999441
0.999527
0.999615
0.999702
0.999777
0.999837
0.999888
0.999944
1.00002
1.00014
1.00053
1.00039
1.00025
1.00011
0.999964
0.999828
0.999702
0.999592
0.999501
0.999431
0.999385
0.999362
0.999362
0.999384
0.999426
0.999484
0.999546
0.999613
0.999675
0.999726
0.999768
0.999807
0.999858
0.999935
1.00005
1.00057
1.00043
1.0003
1.00016
1.00002
0.999888
0.999766
0.99966
0.999573
0.999506
0.99946
0.999435
0.999431
0.999445
0.999475
0.999515
0.99956
0.999605
0.999644
0.999675
0.999702
0.999733
0.999781
0.999858
0.999972
1.0006
1.00047
1.00034
1.00021
1.00008
0.999953
0.999836
0.999733
0.999647
0.999581
0.999534
0.999506
0.999496
0.9995
0.999516
0.99954
0.999566
0.999591
0.99961
0.999626
0.999641
0.999666
0.999711
0.999787
0.999899
1.00064
1.00052
1.0004
1.00027
1.00014
1.00002
0.999908
0.999807
0.999723
0.999656
0.999607
0.999574
0.999555
0.999549
0.999551
0.999558
0.999567
0.999574
0.999577
0.999579
0.999586
0.999606
0.999649
0.999723
0.99983
1.00069
1.00057
1.00045
1.00033
1.00021
1.00009
0.999981
0.999883
0.999798
0.999729
0.999676
0.999637
0.999609
0.999591
0.99958
0.999572
0.999564
0.999555
0.999545
0.999536
0.999536
0.999552
0.999592
0.999663
0.999765
1.00073
1.00062
1.00051
1.00039
1.00028
1.00016
1.00006
0.999957
0.999872
0.9998
0.999742
0.999695
0.999658
0.999629
0.999604
0.999581
0.999559
0.999536
0.999514
0.999497
0.999491
0.999503
0.99954
0.999607
0.999703
1.00078
1.00067
1.00056
1.00045
1.00034
1.00023
1.00013
1.00003
0.999944
0.999868
0.999804
0.999749
0.999703
0.999662
0.999624
0.999588
0.999553
0.999518
0.999486
0.999462
0.99945
0.999458
0.999492
0.999553
0.999641
1.00083
1.00072
1.00062
1.00052
1.00041
1.0003
1.0002
1.0001
1.00001
0.999933
0.999863
0.9998
0.999743
0.999691
0.999641
0.999593
0.999546
0.999501
0.99946
0.999429
0.999413
0.999417
0.999446
0.999501
0.999581
1.00088
1.00078
1.00068
1.00058
1.00048
1.00037
1.00027
1.00017
1.00008
0.999996
0.999918
0.999847
0.99978
0.999717
0.999656
0.999597
0.999539
0.999485
0.999437
0.9994
0.999378
0.999378
0.999401
0.99945
0.999521
1.00093
1.00084
1.00074
1.00064
1.00054
1.00044
1.00034
1.00024
1.00014
1.00005
0.999971
0.999891
0.999815
0.999741
0.99967
0.9996
0.999533
0.99947
0.999415
0.999372
0.999346
0.99934
0.999358
0.999399
0.99946
1.00099
1.0009
1.00081
1.00071
1.00061
1.00051
1.00041
1.00031
1.00021
1.00011
1.00002
0.999933
0.999847
0.999764
0.999683
0.999603
0.999527
0.999457
0.999395
0.999346
0.999315
0.999303
0.999314
0.999347
0.999398
1.00105
1.00096
1.00087
1.00077
1.00068
1.00058
1.00047
1.00037
1.00027
1.00017
1.00007
0.999973
0.999879
0.999786
0.999695
0.999606
0.999522
0.999444
0.999376
0.999322
0.999284
0.999267
0.99927
0.999293
0.999334
1.00111
1.00103
1.00094
1.00084
1.00074
1.00064
1.00054
1.00043
1.00033
1.00022
1.00012
1.00001
0.999909
0.999807
0.999707
0.99961
0.999518
0.999433
0.999359
0.999298
0.999254
0.999229
0.999224
0.999238
0.999268
1.00118
1.00109
1.00101
1.00091
1.00081
1.00071
1.0006
1.0005
1.00039
1.00027
1.00016
1.00005
0.999939
0.999829
0.99972
0.999615
0.999515
0.999423
0.999342
0.999274
0.999223
0.999191
0.999177
0.999181
0.9992
1.00125
1.00116
1.00108
1.00098
1.00088
1.00078
1.00067
1.00056
1.00044
1.00033
1.00021
1.00009
0.999969
0.999851
0.999734
0.99962
0.999513
0.999413
0.999325
0.99925
0.999192
0.999151
0.999127
0.999121
0.999128
1.00132
1.00124
1.00115
1.00105
1.00095
1.00085
1.00074
1.00062
1.0005
1.00038
1.00025
1.00013
1
0.999873
0.999748
0.999627
0.999511
0.999404
0.999308
0.999226
0.999159
0.999109
0.999076
0.999058
0.999054
1.00139
1.00131
1.00123
1.00113
1.00103
1.00092
1.00081
1.00069
1.00056
1.00043
1.0003
1.00017
1.00003
0.999897
0.999763
0.999634
0.99951
0.999395
0.999291
0.9992
0.999125
0.999065
0.999021
0.998992
0.998977
1.00147
1.00139
1.0013
1.00121
1.00111
1.00099
1.00088
1.00075
1.00062
1.00049
1.00035
1.00021
1.00006
0.999921
0.999779
0.999641
0.99951
0.999386
0.999274
0.999174
0.999088
0.999018
0.998963
0.998923
0.998896
1.00155
1.00147
1.00139
1.00129
1.00118
1.00107
1.00095
1.00082
1.00069
1.00054
1.0004
1.00025
1.0001
0.999946
0.999796
0.99965
0.999509
0.999377
0.999255
0.999146
0.99905
0.998969
0.998903
0.998851
0.998812
1.00164
1.00156
1.00147
1.00137
1.00127
1.00115
1.00102
1.00089
1.00075
1.0006
1.00045
1.00029
1.00013
0.999973
0.999814
0.999658
0.999509
0.999367
0.999235
0.999115
0.999009
0.998916
0.998838
0.998774
0.998723
1.00172
1.00165
1.00156
1.00146
1.00135
1.00123
1.0011
1.00096
1.00082
1.00066
1.0005
1.00034
1.00017
1
0.999832
0.999667
0.999508
0.999356
0.999214
0.999083
0.998965
0.998861
0.998771
0.998694
0.998631
1.00182
1.00174
1.00166
1.00155
1.00144
1.00132
1.00118
1.00104
1.00089
1.00072
1.00056
1.00038
1.00021
1.00003
0.999851
0.999676
0.999507
0.999344
0.999191
0.999049
0.998919
0.998802
0.998699
0.99861
0.998534
1.00192
1.00184
1.00175
1.00165
1.00154
1.00141
1.00127
1.00112
1.00096
1.00079
1.00061
1.00043
1.00025
1.00006
0.99987
0.999686
0.999505
0.999332
0.999167
0.999013
0.99887
0.99874
0.998624
0.998521
0.998432
1.00202
1.00195
1.00186
1.00175
1.00163
1.0015
1.00136
1.0012
1.00103
1.00086
1.00067
1.00048
1.00029
1.00009
0.999889
0.999693
0.999501
0.999316
0.999139
0.998971
0.998816
0.998673
0.998543
0.998427
0.998324
1.00213
1.00205
1.00196
1.00186
1.00173
1.0016
1.00145
1.00129
1.00111
1.00093
1.00073
1.00053
1.00033
1.00012
0.99991
0.999702
0.999498
0.9993
0.99911
0.99893
0.998761
0.998604
0.99846
0.99833
0.998214
1.00224
1.00217
1.00208
1.00197
1.00184
1.0017
1.00154
1.00137
1.00119
1.001
1.0008
1.00059
1.00037
1.00015
0.999929
0.999709
0.999493
0.999282
0.999078
0.998884
0.998701
0.998529
0.998371
0.998227
0.998096
1.00236
1.00229
1.00219
1.00208
1.00195
1.00181
1.00164
1.00147
1.00128
1.00107
1.00086
1.00064
1.00041
1.00018
0.999949
0.999716
0.999486
0.999261
0.999044
0.998835
0.998637
0.99845
0.998277
0.998118
0.997973
1.00249
1.00241
1.00232
1.0022
1.00207
1.00192
1.00175
1.00156
1.00137
1.00115
1.00093
1.0007
1.00046
1.00021
0.999968
0.999722
0.999478
0.999239
0.999006
0.998782
0.998568
0.998367
0.998178
0.998003
0.997843
1.00262
1.00255
1.00245
1.00233
1.00219
1.00204
1.00186
1.00167
1.00146
1.00124
1.001
1.00076
1.0005
1.00025
0.999987
0.999727
0.999468
0.999213
0.998965
0.998725
0.998496
0.998278
0.998073
0.997883
0.997708
1.00276
1.00269
1.00259
1.00247
1.00232
1.00216
1.00197
1.00177
1.00155
1.00132
1.00107
1.00082
1.00055
1.00028
1.00001
0.99973
0.999456
0.999185
0.998921
0.998665
0.998419
0.998184
0.997963
0.997757
0.997565
1.00291
1.00283
1.00273
1.00261
1.00246
1.00229
1.0021
1.00188
1.00166
1.00141
1.00115
1.00088
1.0006
1.00031
1.00002
0.999733
0.999442
0.999154
0.998873
0.9986
0.998337
0.998085
0.997847
0.997624
0.997416
1.00306
1.00299
1.00288
1.00275
1.0026
1.00242
1.00222
1.002
1.00176
1.0015
1.00123
1.00095
1.00065
1.00035
1.00004
0.999733
0.999425
0.999121
0.998822
0.99853
0.998249
0.99798
0.997725
0.997484
0.997259
1.00323
1.00315
1.00304
1.00291
1.00275
1.00256
1.00235
1.00212
1.00187
1.0016
1.00131
1.00101
1.0007
1.00038
1.00006
0.999733
0.999407
0.999083
0.998766
0.998456
0.998157
0.997869
0.997596
0.997337
0.997095
1.0034
1.00332
1.00321
1.00307
1.00291
1.00271
1.00249
1.00225
1.00198
1.0017
1.0014
1.00108
1.00075
1.00042
1.00008
0.99973
0.999385
0.999043
0.998706
0.998377
0.998058
0.997752
0.99746
0.997183
0.996923
1.00359
1.00351
1.00339
1.00325
1.00307
1.00287
1.00264
1.00238
1.0021
1.0018
1.00149
1.00115
1.00081
1.00045
1.00009
0.999726
0.99936
0.998998
0.998641
0.998292
0.997954
0.997628
0.997317
0.997021
0.996743
1.00378
1.0037
1.00358
1.00343
1.00325
1.00303
1.00279
1.00252
1.00223
1.00191
1.00158
1.00123
1.00086
1.00049
1.0001
0.999719
0.999332
0.998949
0.998571
0.998201
0.997843
0.997497
0.997166
0.996851
0.996554
1.00398
1.0039
1.00378
1.00362
1.00343
1.00321
1.00295
1.00267
1.00236
1.00203
1.00167
1.0013
1.00092
1.00052
1.00012
0.999709
0.999301
0.998895
0.998495
0.998104
0.997724
0.997358
0.997006
0.996672
0.996355
1.0042
1.00411
1.00399
1.00382
1.00362
1.00339
1.00312
1.00282
1.00249
1.00214
1.00177
1.00138
1.00097
1.00055
1.00013
0.999697
0.999265
0.998837
0.998414
0.998
0.997598
0.99721
0.996838
0.996484
0.996147
1.00443
1.00434
1.00421
1.00403
1.00382
1.00358
1.00329
1.00298
1.00264
1.00227
1.00187
1.00146
1.00103
1.00059
1.00014
0.999681
0.999225
0.998772
0.998326
0.997889
0.997464
0.997054
0.996661
0.996286
0.995929
1.00467
1.00457
1.00444
1.00426
1.00404
1.00378
1.00348
1.00315
1.00278
1.00239
1.00198
1.00154
1.00108
1.00062
1.00014
0.999661
0.99918
0.998702
0.99823
0.997769
0.997321
0.996889
0.996474
0.996077
0.9957
1.00492
1.00482
1.00468
1.00449
1.00426
1.00398
1.00367
1.00332
1.00294
1.00252
1.00208
1.00162
1.00114
1.00065
1.00014
0.999637
0.999129
0.998624
0.998127
0.997641
0.997169
0.996713
0.996275
0.995858
0.99546
1.00519
1.00509
1.00494
1.00474
1.00449
1.0042
1.00387
1.0035
1.0031
1.00266
1.00219
1.00171
1.0012
1.00068
1.00014
0.999608
0.999072
0.998539
0.998015
0.997503
0.997006
0.996526
0.996066
0.995626
0.995208
1.00547
1.00537
1.00521
1.005
1.00474
1.00443
1.00408
1.00369
1.00326
1.0028
1.00231
1.00179
1.00125
1.0007
1.00014
0.999573
0.999007
0.998446
0.997894
0.997354
0.996831
0.996327
0.995843
0.995382
0.994943
1.00577
1.00566
1.00549
1.00527
1.005
1.00467
1.0043
1.00389
1.00343
1.00294
1.00242
1.00188
1.00131
1.00072
1.00013
0.999532
0.998935
0.998343
0.997761
0.997194
0.996644
0.996115
0.995608
0.995124
0.994664
1.00608
1.00597
1.00579
1.00556
1.00527
1.00493
1.00453
1.00409
1.00361
1.00309
1.00254
1.00196
1.00136
1.00074
1.00012
0.999484
0.998853
0.998229
0.997617
0.99702
0.996443
0.995888
0.995357
0.994851
0.99437
1.00641
1.00629
1.00611
1.00586
1.00555
1.00519
1.00477
1.00431
1.0038
1.00325
1.00266
1.00205
1.00141
1.00076
1.00009
0.999426
0.998761
0.998104
0.997459
0.996833
0.996227
0.995645
0.99509
0.994562
0.994061
1.00676
1.00663
1.00644
1.00618
1.00585
1.00547
1.00503
1.00453
1.00399
1.0034
1.00278
1.00213
1.00146
1.00077
1.00006
0.999359
0.998657
0.997965
0.997287
0.996629
0.995994
0.995386
0.994806
0.994255
0.993734
1.00712
1.00699
1.00678
1.00651
1.00617
1.00576
1.00529
1.00476
1.00419
1.00357
1.00291
1.00222
1.0015
1.00077
1.00003
0.999281
0.99854
0.997811
0.997098
0.996407
0.995742
0.995107
0.994503
0.99393
0.993389
1.00751
1.00737
1.00715
1.00686
1.00649
1.00606
1.00556
1.005
1.00439
1.00373
1.00303
1.0023
1.00154
1.00076
0.999976
0.999189
0.998408
0.99764
0.99689
0.996166
0.99547
0.994807
0.994178
0.993583
0.993024
1.00791
1.00776
1.00753
1.00722
1.00684
1.00637
1.00584
1.00525
1.0046
1.00389
1.00315
1.00237
1.00157
1.00075
0.999914
0.999082
0.998258
0.997449
0.996662
0.995902
0.995175
0.994484
0.99383
0.993214
0.992636
1.00834
1.00818
1.00794
1.00761
1.00719
1.0067
1.00614
1.0055
1.00481
1.00406
1.00327
1.00244
1.00159
1.00072
0.999838
0.998958
0.998089
0.997237
0.99641
0.995614
0.994855
0.994135
0.993456
0.99282
0.992225
1.00878
1.00862
1.00836
1.00801
1.00757
1.00704
1.00644
1.00576
1.00503
1.00423
1.00339
1.00251
1.0016
1.00068
0.999744
0.998815
0.997897
0.997
0.996132
0.995298
0.994506
0.993757
0.993054
0.992398
0.991788
1.00925
1.00908
1.0088
1.00843
1.00796
1.0074
1.00675
1.00603
1.00525
1.0044
1.0035
1.00257
1.0016
1.00062
0.999631
0.998648
0.99768
0.996735
0.995824
0.994952
0.994125
0.993347
0.992621
0.991946
0.991322
1.00974
1.00956
1.00926
1.00886
1.00836
1.00776
1.00708
1.00631
1.00547
1.00456
1.00361
1.00261
1.00159
1.00054
0.999496
0.998455
0.997433
0.996439
0.995482
0.99457
0.993709
0.992903
0.992153
0.991461
0.990824
1.01025
1.01006
1.00974
1.00932
1.00878
1.00814
1.00741
1.00659
1.00569
1.00472
1.0037
1.00264
1.00155
1.00044
0.999334
0.998233
0.997153
0.996107
0.995103
0.99415
0.993253
0.992419
0.991646
0.990938
0.990292
1.01079
1.01058
1.01025
1.00979
1.00922
1.00853
1.00775
1.00687
1.00591
1.00488
1.00379
1.00266
1.0015
1.00032
0.999141
0.997975
0.996836
0.995734
0.994681
0.993686
0.992754
0.991891
0.991098
0.990376
0.989722
1.01135
1.01113
1.01077
1.01028
1.00967
1.00893
1.00809
1.00715
1.00612
1.00502
1.00386
1.00265
1.00141
1.00016
0.998913
0.997678
0.996475
0.995316
0.994212
0.993172
0.992205
0.991314
0.990502
0.989769
0.989111
1.01194
1.0117
1.01131
1.01079
1.01013
1.00934
1.00844
1.00743
1.00633
1.00515
1.00391
1.00262
1.0013
0.999971
0.998643
0.997336
0.996065
0.994845
0.993688
0.992604
0.991601
0.990683
0.989853
0.989111
0.988452
1.01254
1.01229
1.01188
1.01131
1.01061
1.00976
1.00879
1.00771
1.00653
1.00527
1.00394
1.00256
1.00116
0.999738
0.998327
0.996941
0.995599
0.994315
0.993103
0.991973
0.990934
0.989991
0.989146
0.988398
0.98774
1.01317
1.0129
1.01246
1.01185
1.01109
1.01018
1.00914
1.00798
1.00672
1.00536
1.00394
1.00247
1.00097
0.999455
0.997955
0.996487
0.995069
0.993718
0.992448
0.991272
0.990198
0.98923
0.988371
0.987617
0.986959
1.01382
1.01353
1.01305
1.0124
1.01158
1.01061
1.00949
1.00824
1.00689
1.00543
1.00391
1.00233
1.00073
0.999115
0.99752
0.995963
0.994465
0.993044
0.991714
0.99049
0.98938
0.988387
0.987513
0.98675
0.986085
1.01449
1.01418
1.01366
1.01296
1.01208
1.01103
1.00983
1.00849
1.00703
1.00547
1.00383
1.00214
1.00043
0.99871
0.997012
0.99536
0.993777
0.99228
0.990888
0.989612
0.988462
0.98744
0.986544
0.985759
0.985069
1.01518
1.01484
1.01429
1.01353
1.01258
1.01145
1.01015
1.00871
1.00714
1.00546
1.00371
1.0019
1.00006
0.998225
0.996417
0.994663
0.992987
0.991408
0.989945
0.988611
0.987412
0.986349
0.98541
0.984578
0.983821
1.01588
1.01551
1.01492
1.0141
1.01308
1.01186
1.01046
1.0089
1.00721
1.00541
1.00352
1.00158
0.999611
0.997646
0.995715
0.993848
0.992067
0.990394
0.988847
0.987436
0.986169
0.985039
0.984022
0.983104
0.98225
1.0166
1.0162
1.01556
1.01467
1.01357
1.01225
1.01074
1.00906
1.00723
1.00529
1.00325
1.00117
0.99905
0.99694
0.994869
0.99287
0.990965
0.989174
0.987515
0.985999
0.984631
0.983387
0.982258
0.981214
0.98023
1.01732
1.01689
1.01619
1.01524
1.01404
1.01261
1.01097
1.00915
1.00718
1.00508
1.00288
1.00062
0.998331
0.996047
0.993808
0.991646
0.989581
0.987634
0.985825
0.98416
0.98266
0.981248
0.979955
0.978799
0.977675
1.01805
1.01759
1.01683
1.01579
1.01448
1.01293
1.01114
1.00916
1.00701
1.00472
1.00232
0.999861
0.997362
0.994855
0.992407
0.990037
0.987764
0.985614
0.983606
0.981759
0.980058
0.978504
0.977089
0.975837
0.974673
1.01879
1.01828
1.01745
1.0163
1.01487
1.01316
1.0112
1.00902
1.00665
1.00412
1.00148
0.998768
0.995997
0.993198
0.990491
0.98787
0.985342
0.982948
0.980719
0.978672
0.976836
0.975189
0.973744
0.972541
0.971574
1.01952
1.01895
1.01802
1.01675
1.01515
1.01324
1.01105
1.00862
1.00598
1.00316
1.0002
0.99718
0.994062
0.990935
0.987915
0.985028
0.982239
0.979612
0.977204
0.975046
0.973177
0.971593
0.970326
0.969408
0.968839
1.02019
1.01955
1.0185
1.01706
1.01525
1.0131
1.01064
1.00789
1.00493
1.00175
0.998415
0.995036
0.991604
0.988149
0.984796
0.981634
0.978654
0.975904
0.973454
0.971351
0.969633
0.968316
0.967415
0.966932
0.966838
1.02078
1.02005
1.01886
1.01723
1.01519
1.01276
1.00998
1.0069
1.00359
1.00007
0.996374
0.992621
0.98892
0.985227
0.98165
0.978297
0.975257
0.972545
0.970218
0.968327
0.966897
0.965934
0.965428
0.965339
0.965615
1.02131
1.0205
1.01918
1.01739
1.01513
1.01246
1.00942
1.00606
1.00244
0.998657
0.99472
0.990729
0.986799
0.982965
0.979317
0.975962
0.972956
0.970349
0.968186
0.966501
0.9653
0.964578
0.964301
0.964418
0.964865
1.02176
1.0209
1.01951
1.01762
1.01526
1.01246
1.00928
1.00578
1.00202
0.998095
0.994049
0.989967
0.985957
0.982088
0.978415
0.975051
0.972061
0.969492
0.967381
0.965754
0.964613
0.963945
0.963715
0.963873
0.964355
1.00535
1.00639
1.00553
1.00573
1.00622
1.00655
1.00607
1.00549
1.00493
1.0042
1.00334
1.00246
1.00167
1.00097
1.00029
0.999548
0.998821
0.998258
0.997918
0.99771
0.997661
0.997274
0.995971
0.993711
0.995469
1.00376
1.00501
1.00489
1.0056
1.00608
1.00621
1.00575
1.00527
1.00483
1.00418
1.00333
1.00245
1.00167
1.00099
1.00033
0.999621
0.998916
0.998342
0.997976
0.99776
0.997667
0.997258
0.995864
0.993542
0.995738
1.004
1.00497
1.0053
1.00571
1.00589
1.00589
1.00556
1.0052
1.00477
1.00411
1.00328
1.00244
1.00167
1.001
1.00036
0.999688
0.999015
0.998448
0.998067
0.997849
0.997769
0.997615
0.99714
0.995037
0.996783
1.004
1.00472
1.00514
1.0055
1.0056
1.00557
1.00533
1.00505
1.00464
1.00401
1.00322
1.00242
1.00168
1.00102
1.0004
0.999765
0.999133
0.998582
0.998189
0.997964
0.997899
0.997956
0.998126
0.996924
0.99736
1.00366
1.00462
1.00512
1.0053
1.00528
1.00523
1.00512
1.0049
1.0045
1.00388
1.00314
1.00239
1.00168
1.00103
1.00043
0.99984
0.999254
0.998732
0.998334
0.998107
0.998081
0.998255
0.998671
0.998538
0.997592
1.00392
1.00456
1.00489
1.00498
1.00493
1.00495
1.00493
1.00474
1.00434
1.00374
1.00306
1.00235
1.00168
1.00104
1.00046
0.999912
0.999374
0.998888
0.998496
0.998271
0.998274
0.998377
0.998513
0.998791
0.997813
1.00375
1.00431
1.00459
1.00465
1.00463
1.00469
1.00472
1.00456
1.00416
1.00359
1.00296
1.00231
1.00167
1.00106
1.0005
0.999978
0.999486
0.999042
0.998665
0.998446
0.998437
0.998274
0.99726
0.997365
0.997323
1.00362
1.00408
1.00428
1.00431
1.00434
1.00446
1.00453
1.00437
1.00397
1.00343
1.00286
1.00226
1.00166
1.00107
1.00053
1.00004
0.999589
0.999186
0.998833
0.99862
0.998546
0.997959
0.996212
0.994559
0.995466
1.00342
1.0038
1.00397
1.00401
1.00409
1.00426
1.00433
1.00416
1.00377
1.00327
1.00275
1.00221
1.00164
1.00108
1.00056
1.00009
0.999682
0.999316
0.998992
0.998781
0.998632
0.997691
0.996083
0.993117
0.993883
1.0032
1.00352
1.00366
1.00373
1.00386
1.00405
1.00412
1.00394
1.00356
1.0031
1.00263
1.00215
1.00163
1.00109
1.00059
1.00015
0.999764
0.999432
0.99914
0.998928
0.998741
0.997705
0.996278
0.993423
0.994308
1.00298
1.00324
1.00336
1.00347
1.00365
1.00386
1.00391
1.00372
1.00335
1.00293
1.00251
1.00208
1.0016
1.0011
1.00062
1.0002
0.999838
0.999533
0.999275
0.999073
0.998874
0.99809
0.996725
0.994809
0.995783
1.00275
1.00296
1.00309
1.00323
1.00346
1.00366
1.00369
1.00349
1.00314
1.00276
1.00239
1.002
1.00157
1.00111
1.00066
1.00025
0.999905
0.999623
0.999396
0.999217
0.999053
0.998702
0.997441
0.996216
0.996484
1.00252
1.00269
1.00283
1.00301
1.00326
1.00345
1.00346
1.00326
1.00294
1.00259
1.00226
1.00192
1.00154
1.00111
1.00069
1.0003
0.999968
0.999702
0.9995
0.99935
0.999245
0.999224
0.998313
0.996875
0.995915
1.00228
1.00244
1.00259
1.00281
1.00307
1.00324
1.00324
1.00304
1.00274
1.00242
1.00213
1.00184
1.0015
1.00111
1.00072
1.00034
1.00003
0.999775
0.999588
0.999464
0.999401
0.999517
0.999148
0.997295
0.994849
1.00205
1.0022
1.00237
1.00261
1.00287
1.00303
1.00301
1.00282
1.00254
1.00226
1.00201
1.00175
1.00145
1.00111
1.00074
1.00039
1.00009
0.999844
0.999662
0.999554
0.999509
0.999635
0.999692
0.998233
0.995159
1.00182
1.00197
1.00216
1.00242
1.00268
1.00282
1.00279
1.00261
1.00235
1.0021
1.00188
1.00166
1.0014
1.00109
1.00076
1.00044
1.00015
0.999912
0.999729
0.999629
0.999595
0.999653
0.999782
0.998915
0.996554
1.0016
1.00176
1.00197
1.00224
1.00248
1.00261
1.00258
1.00241
1.00218
1.00195
1.00175
1.00156
1.00134
1.00108
1.00078
1.00048
1.00021
0.99998
0.999794
0.999702
0.999674
0.999582
0.999361
0.99867
0.997136
1.0014
1.00156
1.00179
1.00206
1.00229
1.00241
1.00237
1.00222
1.00201
1.0018
1.00163
1.00147
1.00128
1.00105
1.00079
1.00052
1.00027
1.00005
0.999863
0.999778
0.999673
0.999235
0.998002
0.997039
0.996269
1.00121
1.00138
1.00162
1.00189
1.00211
1.00221
1.00218
1.00203
1.00184
1.00166
1.00151
1.00137
1.00121
1.00102
1.00079
1.00055
1.00032
1.00011
0.999939
0.999854
0.999579
0.998267
0.995822
0.99363
0.993715
1.00103
1.00122
1.00146
1.00172
1.00193
1.00202
1.00199
1.00186
1.00169
1.00153
1.00139
1.00127
1.00114
1.00098
1.00078
1.00057
1.00038
1.00018
1.00002
0.999927
0.999305
0.997337
0.993987
0.990586
0.990506
1.00088
1.00107
1.00132
1.00157
1.00176
1.00184
1.00181
1.0017
1.00154
1.00139
1.00127
1.00117
1.00106
1.00093
1.00077
1.00059
1.00042
1.00024
1.00011
0.99995
0.998891
0.996841
0.993402
0.989501
0.989241
1.00073
1.00094
1.00118
1.00141
1.00159
1.00167
1.00164
1.00154
1.0014
1.00127
1.00116
1.00107
1.00098
1.00088
1.00075
1.0006
1.00045
1.00029
1.00019
0.99998
0.998708
0.996746
0.994126
0.990378
0.990493
1.00061
1.00081
1.00105
1.00127
1.00143
1.00151
1.00148
1.00139
1.00127
1.00114
1.00105
1.00097
1.0009
1.00082
1.00072
1.0006
1.00048
1.00035
1.00026
1.00003
0.998845
0.99749
0.995757
0.992898
0.993068
1.00049
1.0007
1.00092
1.00113
1.00128
1.00135
1.00133
1.00125
1.00114
1.00103
1.00094
1.00087
1.00082
1.00076
1.00068
1.00059
1.00049
1.00039
1.00033
1.00013
0.999177
0.998317
0.997237
0.995295
0.995115
1.00039
1.00059
1.0008
1.001
1.00114
1.0012
1.00118
1.00111
1.00101
1.00091
1.00084
1.00078
1.00074
1.00069
1.00064
1.00057
1.0005
1.00042
1.00039
1.00025
0.999564
0.998786
0.998041
0.996654
0.995823
1.00029
1.00049
1.00069
1.00087
1.001
1.00106
1.00104
1.00098
1.00089
1.00081
1.00074
1.00069
1.00065
1.00062
1.00058
1.00054
1.00049
1.00044
1.00043
1.00037
0.999953
0.999042
0.998106
0.996798
0.995412
1.00021
1.00039
1.00058
1.00075
1.00087
1.00092
1.00091
1.00085
1.00078
1.0007
1.00064
1.0006
1.00057
1.00055
1.00053
1.0005
1.00046
1.00043
1.00044
1.00044
1.00026
0.999257
0.997782
0.995944
0.993522
1.00012
1.0003
1.00047
1.00063
1.00074
1.00079
1.00078
1.00073
1.00067
1.0006
1.00055
1.00051
1.00049
1.00047
1.00046
1.00045
1.00043
1.00042
1.00044
1.00047
1.00042
0.999615
0.99764
0.994938
0.991147
1.00004
1.00021
1.00037
1.00051
1.00061
1.00066
1.00066
1.00062
1.00056
1.0005
1.00046
1.00043
1.00041
1.0004
1.00039
1.00039
1.00038
1.00038
1.0004
1.00045
1.00046
0.999956
0.99791
0.994512
0.989929
0.999966
1.00012
1.00027
1.0004
1.00049
1.00053
1.00053
1.0005
1.00046
1.00041
1.00037
1.00034
1.00033
1.00032
1.00032
1.00032
1.00032
1.00032
1.00034
1.00037
1.00039
1.00012
0.998489
0.995053
0.99059
0.999893
1.00003
1.00017
1.00029
1.00037
1.00041
1.00042
1.00039
1.00036
1.00031
1.00028
1.00026
1.00025
1.00025
1.00025
1.00025
1.00025
1.00025
1.00026
1.00026
1.00022
1.00004
0.998941
0.996325
0.992464
0.99982
0.999949
1.00008
1.00018
1.00026
1.0003
1.0003
1.00029
1.00026
1.00022
1.0002
1.00018
1.00018
1.00018
1.00018
1.00018
1.00018
1.00017
1.00015
1.00012
1.00001
0.999767
0.999002
0.997192
0.994454
0.999749
0.999866
0.99998
1.00008
1.00015
1.00018
1.00019
1.00018
1.00016
1.00014
1.00012
1.00011
1.00011
1.00011
1.00011
1.00012
1.00011
1.00008
1.00003
0.999952
0.999772
0.999424
0.998728
0.997443
0.99566
0.999678
0.999783
0.999885
0.999971
1.00003
1.00007
1.00008
1.00008
1.00006
1.00005
1.00004
1.00003
1.00004
1.00004
1.00005
1.00005
1.00003
0.999992
0.999908
0.999774
0.999512
0.999047
0.998256
0.997143
0.99593
0.999607
0.9997
0.99979
0.999867
0.999925
0.99996
0.999974
0.999975
0.999968
0.999961
0.999958
0.999962
0.999971
0.999982
0.999991
0.999989
0.999967
0.999904
0.999787
0.9996
0.999221
0.998559
0.997538
0.996341
0.99541
0.999535
0.999616
0.999695
0.999764
0.999816
0.99985
0.999867
0.999873
0.999873
0.999874
0.99988
0.999892
0.999908
0.999925
0.999938
0.999937
0.999908
0.999826
0.999686
0.999444
0.99884
0.997738
0.99622
0.994754
0.99394
0.999461
0.999531
0.9996
0.99966
0.999707
0.99974
0.999759
0.99977
0.999778
0.999788
0.999802
0.999823
0.999848
0.999874
0.999893
0.999895
0.999861
0.999765
0.999611
0.999257
0.998158
0.996268
0.993729
0.991646
0.991183
0.999386
0.999445
0.999503
0.999555
0.999598
0.999629
0.999651
0.999667
0.999682
0.9997
0.999724
0.999755
0.999791
0.999827
0.999856
0.999865
0.999829
0.99973
0.999547
0.998892
0.996776
0.993601
0.989951
0.987448
0.987322
0.999309
0.999357
0.999405
0.999449
0.999487
0.999517
0.999541
0.999561
0.999583
0.999611
0.999646
0.999687
0.999736
0.999785
0.999827
0.999847
0.999817
0.999736
0.999481
0.998257
0.994844
0.990467
0.986074
0.983488
0.983929
0.999229
0.999266
0.999305
0.999342
0.999374
0.999403
0.999428
0.999454
0.999483
0.999519
0.999565
0.999619
0.999681
0.999746
0.999807
0.999841
0.999829
0.999783
0.9994
0.997454
0.993282
0.988192
0.983916
0.981712
0.982575
0.999147
0.999173
0.999202
0.999232