/*--------------------------------*- C++ -*----------------------------------*\
| =========                 |                                                 |
| \\      /  F ield         | OpenFOAM: The Open Source CFD Toolbox           |
|  \\    /   O peration     | Version:  v1912                                 |
|   \\  /    A nd           | Website:  www.openfoam.com                      |
|    \\/     M anipulation  |                                                 |
\*---------------------------------------------------------------------------*/
FoamFile
{
    version     2.0;
    format      ascii;
    class       volScalarField;
    location    "1000";
    object      rhoMean;
}
// * * * * * * * * * * * * * * * * * * * * * * * * * * * * * * * * * * * * * //

dimensions      [1 -3 0 0 0 0 0];


internalField   nonuniform List<scalar> 
9900
(
1.00349
1.00344
1.0035
1.00347
1.00347
1.00345
1.00341
1.00339
1.00334
1.0033
1.00325
1.00319
1.00312
1.00303
1.0029
1.00275
1.00256
1.00236
1.00213
1.00187
1.00158
1.00127
1.0009
1.00051
1.0001
1.00142
1.0012
1.00128
1.00114
1.00112
1.00103
1.00097
1.00088
1.00079
1.0007
1.0006
1.0005
1.0004
1.0003
1.00021
1.00013
1.00004
0.999948
0.999834
0.999721
0.999629
0.999578
0.999573
0.999618
0.999769
0.999807
0.99982
0.999761
0.999777
0.999721
0.999712
0.999694
0.999666
0.999653
0.999623
0.999607
0.999585
0.999571
0.999568
0.999586
0.999626
0.999679
0.999742
0.999811
0.999883
0.999955
1.00003
1.0001
1.00013
1.00011
0.999842
0.999955
0.999891
0.999973
0.999948
0.999984
0.999996
1.00001
1.00003
1.00004
1.00005
1.00006
1.00006
1.00006
1.00006
1.00006
1.00005
1.00005
1.00005
1.00006
1.00005
1.00002
0.999961
0.999871
0.999786
1.00026
1.00032
1.00029
1.00032
1.00032
1.00032
1.00033
1.00033
1.00033
1.00033
1.00032
1.00031
1.00029
1.00026
1.00023
1.00019
1.00014
1.0001
1.00006
1.00001
0.999973
0.999935
0.999902
0.999894
0.999923
1.00039
1.0004
1.00039
1.00038
1.00038
1.00036
1.00035
1.00033
1.00032
1.0003
1.00027
1.00025
1.00022
1.00019
1.00015
1.00011
1.00007
1.00004
1
0.99997
0.999942
0.99992
0.999902
0.999888
0.999853
1.00034
1.00035
1.00033
1.00032
1.00032
1.0003
1.00029
1.00027
1.00025
1.00023
1.00021
1.00019
1.00016
1.00013
1.00011
1.00008
1.00005
1.00002
0.999998
0.999973
0.999948
0.999924
0.999899
0.999872
0.999846
1.0003
1.00031
1.0003
1.0003
1.0003
1.00029
1.00027
1.00026
1.00025
1.00023
1.00021
1.00019
1.00017
1.00015
1.00012
1.0001
1.00007
1.00004
1.00001
0.999982
0.999953
0.999922
0.999891
0.999863
0.999838
1.00032
1.00033
1.00032
1.00032
1.00032
1.00031
1.0003
1.00029
1.00027
1.00026
1.00024
1.00022
1.00019
1.00017
1.00014
1.00011
1.00008
1.00005
1.00002
0.999984
0.99995
0.999918
0.999887
0.999859
0.999834
1.00035
1.00036
1.00035
1.00035
1.00034
1.00034
1.00032
1.00031
1.00029
1.00027
1.00025
1.00023
1.0002
1.00018
1.00015
1.00012
1.00008
1.00005
1.00002
0.999981
0.999948
0.999916
0.999885
0.999856
0.999831
1.00037
1.00038
1.00037
1.00037
1.00036
1.00035
1.00034
1.00032
1.0003
1.00028
1.00026
1.00024
1.00021
1.00018
1.00015
1.00012
1.00008
1.00005
1.00001
0.99998
0.999947
0.999914
0.999883
0.999854
0.999827
1.00039
1.00039
1.00039
1.00038
1.00037
1.00036
1.00035
1.00033
1.00031
1.00029
1.00027
1.00024
1.00021
1.00018
1.00015
1.00012
1.00008
1.00005
1.00001
0.99998
0.999945
0.999912
0.99988
0.99985
0.999822
1.0004
1.00041
1.0004
1.00039
1.00039
1.00038
1.00036
1.00034
1.00032
1.0003
1.00028
1.00025
1.00022
1.00019
1.00016
1.00012
1.00009
1.00005
1.00001
0.999979
0.999943
0.999909
0.999876
0.999845
0.999816
1.00042
1.00042
1.00042
1.00041
1.0004
1.00039
1.00038
1.00036
1.00034
1.00031
1.00029
1.00026
1.00023
1.0002
1.00016
1.00013
1.00009
1.00005
1.00001
0.999977
0.999941
0.999905
0.999871
0.999839
0.999809
1.00044
1.00044
1.00044
1.00043
1.00042
1.00041
1.00039
1.00037
1.00035
1.00033
1.0003
1.00027
1.00024
1.0002
1.00017
1.00013
1.00009
1.00005
1.00001
0.999975
0.999938
0.999901
0.999865
0.999832
0.999801
1.00046
1.00046
1.00046
1.00045
1.00044
1.00043
1.00041
1.00039
1.00036
1.00034
1.00031
1.00028
1.00024
1.00021
1.00017
1.00013
1.00009
1.00005
1.00001
0.999973
0.999934
0.999896
0.999859
0.999824
0.999792
1.00048
1.00048
1.00048
1.00047
1.00046
1.00044
1.00043
1.0004
1.00038
1.00035
1.00032
1.00029
1.00025
1.00022
1.00018
1.00014
1.0001
1.00005
1.00001
0.999971
0.99993
0.99989
0.999851
0.999815
0.999782
1.00051
1.00051
1.0005
1.00049
1.00048
1.00046
1.00044
1.00042
1.00039
1.00037
1.00033
1.0003
1.00026
1.00022
1.00018
1.00014
1.0001
1.00006
1.00001
0.999968
0.999925
0.999884
0.999844
0.999806
0.999771
1.00053
1.00053
1.00052
1.00051
1.0005
1.00048
1.00046
1.00044
1.00041
1.00038
1.00035
1.00031
1.00027
1.00023
1.00019
1.00015
1.0001
1.00006
1.00001
0.999965
0.99992
0.999877
0.999835
0.999796
0.99976
1.00055
1.00055
1.00055
1.00054
1.00052
1.0005
1.00048
1.00046
1.00043
1.0004
1.00036
1.00032
1.00028
1.00024
1.0002
1.00015
1.0001
1.00006
1.00001
0.999962
0.999915
0.999869
0.999826
0.999785
0.999748
1.00058
1.00058
1.00057
1.00056
1.00054
1.00053
1.0005
1.00048
1.00045
1.00041
1.00038
1.00034
1.00029
1.00025
1.0002
1.00016
1.00011
1.00006
1.00001
0.999958
0.999909
0.999862
0.999816
0.999774
0.999734
1.00061
1.0006
1.0006
1.00059
1.00057
1.00055
1.00052
1.0005
1.00047
1.00043
1.00039
1.00035
1.00031
1.00026
1.00021
1.00016
1.00011
1.00006
1.00001
0.999954
0.999903
0.999853
0.999806
0.999761
0.99972
1.00064
1.00063
1.00063
1.00061
1.0006
1.00057
1.00055
1.00052
1.00049
1.00045
1.00041
1.00037
1.00032
1.00027
1.00022
1.00017
1.00011
1.00006
1
0.999949
0.999896
0.999844
0.999795
0.999748
0.999705
1.00067
1.00066
1.00065
1.00064
1.00062
1.0006
1.00057
1.00054
1.00051
1.00047
1.00043
1.00038
1.00033
1.00028
1.00023
1.00017
1.00012
1.00006
1
0.999944
0.999888
0.999834
0.999782
0.999734
0.999689
1.0007
1.00069
1.00068
1.00067
1.00065
1.00063
1.0006
1.00057
1.00053
1.00049
1.00045
1.0004
1.00035
1.00029
1.00024
1.00018
1.00012
1.00006
0.999999
0.999939
0.99988
0.999824
0.999769
0.999718
0.999671
1.00073
1.00073
1.00072
1.0007
1.00068
1.00066
1.00063
1.00059
1.00055
1.00051
1.00046
1.00041
1.00036
1.0003
1.00024
1.00018
1.00012
1.00006
0.999996
0.999933
0.999872
0.999812
0.999756
0.999702
0.999652
1.00077
1.00076
1.00075
1.00074
1.00071
1.00069
1.00066
1.00062
1.00058
1.00053
1.00049
1.00043
1.00038
1.00032
1.00025
1.00019
1.00012
1.00006
0.999993
0.999927
0.999863
0.9998
0.999741
0.999684
0.999632
1.0008
1.0008
1.00079
1.00077
1.00075
1.00072
1.00069
1.00065
1.00061
1.00056
1.00051
1.00045
1.00039
1.00033
1.00026
1.0002
1.00013
1.00006
0.999989
0.99992
0.999853
0.999787
0.999725
0.999665
0.99961
1.00084
1.00083
1.00082
1.00081
1.00078
1.00075
1.00072
1.00068
1.00063
1.00058
1.00053
1.00047
1.00041
1.00034
1.00027
1.0002
1.00013
1.00006
0.999986
0.999913
0.999842
0.999774
0.999708
0.999645
0.999587
1.00088
1.00087
1.00086
1.00084
1.00082
1.00079
1.00075
1.00071
1.00066
1.00061
1.00055
1.00049
1.00043
1.00036
1.00028
1.00021
1.00013
1.00006
0.999982
0.999906
0.999831
0.999759
0.99969
0.999624
0.999562
1.00092
1.00092
1.0009
1.00088
1.00086
1.00083
1.00079
1.00074
1.00069
1.00064
1.00058
1.00051
1.00044
1.00037
1.0003
1.00022
1.00014
1.00006
0.999978
0.999898
0.999819
0.999743
0.99967
0.999601
0.999536
1.00097
1.00096
1.00095
1.00093
1.0009
1.00086
1.00082
1.00078
1.00072
1.00067
1.0006
1.00053
1.00046
1.00039
1.00031
1.00023
1.00014
1.00006
0.999973
0.999889
0.999807
0.999727
0.99965
0.999577
0.999508
1.00101
1.00101
1.00099
1.00097
1.00094
1.00091
1.00086
1.00081
1.00076
1.0007
1.00063
1.00056
1.00048
1.0004
1.00032
1.00023
1.00015
1.00006
0.999968
0.99988
0.999793
0.999709
0.999628
0.999551
0.999479
1.00106
1.00105
1.00104
1.00102
1.00099
1.00095
1.0009
1.00085
1.00079
1.00073
1.00066
1.00058
1.0005
1.00042
1.00033
1.00024
1.00015
1.00006
0.999963
0.99987
0.999779
0.99969
0.999605
0.999523
0.999447
1.00112
1.00111
1.00109
1.00107
1.00103
1.00099
1.00095
1.00089
1.00083
1.00076
1.00069
1.00061
1.00053
1.00044
1.00035
1.00025
1.00015
1.00006
0.999957
0.999859
0.999763
0.99967
0.99958
0.999494
0.999414
1.00117
1.00116
1.00114
1.00112
1.00108
1.00104
1.00099
1.00093
1.00087
1.0008
1.00072
1.00064
1.00055
1.00046
1.00036
1.00026
1.00016
1.00005
0.999951
0.999848
0.999747
0.999648
0.999553
0.999463
0.999378
1.00123
1.00122
1.0012
1.00117
1.00114
1.00109
1.00104
1.00098
1.00091
1.00084
1.00075
1.00067
1.00057
1.00047
1.00037
1.00027
1.00016
1.00005
0.999944
0.999836
0.999729
0.999626
0.999526
0.99943
0.999341
1.00129
1.00128
1.00126
1.00123
1.00119
1.00114
1.00109
1.00103
1.00095
1.00087
1.00079
1.0007
1.0006
1.0005
1.00039
1.00028
1.00017
1.00005
0.999937
0.999823
0.999711
0.999601
0.999496
0.999395
0.999301
1.00135
1.00134
1.00132
1.00129
1.00125
1.0012
1.00114
1.00107
1.001
1.00092
1.00082
1.00073
1.00062
1.00052
1.0004
1.00029
1.00017
1.00005
0.999929
0.999809
0.999691
0.999575
0.999464
0.999358
0.999259
1.00142
1.0014
1.00138
1.00135
1.00131
1.00126
1.0012
1.00113
1.00105
1.00096
1.00086
1.00076
1.00065
1.00054
1.00042
1.0003
1.00017
1.00005
0.99992
0.999794
0.999669
0.999548
0.999431
0.999319
0.999214
1.00149
1.00147
1.00145
1.00142
1.00137
1.00132
1.00125
1.00118
1.0011
1.001
1.0009
1.0008
1.00068
1.00056
1.00044
1.00031
1.00018
1.00004
0.999911
0.999778
0.999647
0.999519
0.999395
0.999278
0.999166
1.00156
1.00155
1.00152
1.00149
1.00144
1.00138
1.00132
1.00124
1.00115
1.00105
1.00095
1.00083
1.00071
1.00059
1.00045
1.00032
1.00018
1.00004
0.999901
0.999761
0.999623
0.999488
0.999358
0.999234
0.999116
1.00164
1.00162
1.0016
1.00156
1.00151
1.00145
1.00138
1.0013
1.0012
1.0011
1.00099
1.00087
1.00074
1.00061
1.00047
1.00033
1.00019
1.00004
0.99989
0.999743
0.999597
0.999456
0.999318
0.999187
0.999063
1.00172
1.0017
1.00168
1.00164
1.00159
1.00152
1.00145
1.00136
1.00126
1.00115
1.00104
1.00091
1.00078
1.00064
1.00049
1.00034
1.00019
1.00003
0.999878
0.999723
0.99957
0.999421
0.999276
0.999138
0.999007
1.0018
1.00179
1.00176
1.00172
1.00166
1.0016
1.00152
1.00143
1.00132
1.00121
1.00109
1.00095
1.00081
1.00067
1.00051
1.00035
1.00019
1.00003
0.999866
0.999703
0.999542
0.999384
0.999232
0.999086
0.998948
1.00189
1.00188
1.00185
1.0018
1.00175
1.00168
1.00159
1.0015
1.00139
1.00127
1.00114
1.001
1.00085
1.00069
1.00053
1.00037
1.0002
1.00003
0.999853
0.999681
0.999511
0.999346
0.999185
0.999031
0.998885
1.00199
1.00197
1.00194
1.00189
1.00183
1.00176
1.00167
1.00157
1.00145
1.00133
1.00119
1.00104
1.00089
1.00072
1.00055
1.00038
1.0002
1.00002
0.999839
0.999658
0.999479
0.999305
0.999135
0.998973
0.998819
1.00209
1.00207
1.00203
1.00199
1.00192
1.00184
1.00175
1.00165
1.00152
1.00139
1.00125
1.00109
1.00093
1.00076
1.00058
1.00039
1.00021
1.00001
0.999823
0.999633
0.999445
0.999261
0.999083
0.998912
0.99875
1.00219
1.00217
1.00214
1.00209
1.00202
1.00194
1.00184
1.00173
1.0016
1.00146
1.00131
1.00114
1.00097
1.00079
1.0006
1.00041
1.00021
1.00001
0.999807
0.999607
0.999409
0.999216
0.999028
0.998848
0.998676
1.0023
1.00228
1.00224
1.00219
1.00212
1.00203
1.00193
1.00181
1.00168
1.00153
1.00137
1.0012
1.00101
1.00082
1.00063
1.00042
1.00021
1
0.99979
0.999579
0.999371
0.999167
0.99897
0.99878
0.998599
1.00242
1.00239
1.00236
1.0023
1.00222
1.00213
1.00202
1.0019
1.00176
1.0016
1.00143
1.00125
1.00106
1.00086
1.00065
1.00043
1.00022
0.999994
0.999771
0.999549
0.99933
0.999116
0.998908
0.998708
0.998518
1.00254
1.00252
1.00247
1.00241
1.00234
1.00224
1.00212
1.00199
1.00184
1.00168
1.0015
1.00131
1.00111
1.0009
1.00068
1.00045
1.00022
0.999985
0.999751
0.999517
0.999287
0.999062
0.998843
0.998632
0.998432
1.00266
1.00264
1.0026
1.00254
1.00245
1.00235
1.00223
1.00209
1.00193
1.00176
1.00157
1.00137
1.00116
1.00093
1.0007
1.00046
1.00022
0.999975
0.999729
0.999484
0.999241
0.999004
0.998774
0.998553
0.998341
1.0028
1.00278
1.00273
1.00266
1.00258
1.00247
1.00234
1.00219
1.00203
1.00184
1.00165
1.00143
1.00121
1.00097
1.00073
1.00048
1.00022
0.999965
0.999705
0.999447
0.999193
0.998944
0.998701
0.998468
0.998246
1.00294
1.00292
1.00287
1.0028
1.0027
1.00259
1.00245
1.0023
1.00212
1.00193
1.00172
1.0015
1.00126
1.00101
1.00076
1.00049
1.00022
0.999953
0.99968
0.999409
0.999141
0.998879
0.998625
0.99838
0.998146
1.00309
1.00306
1.00301
1.00294
1.00284
1.00272
1.00258
1.00241
1.00223
1.00202
1.0018
1.00157
1.00132
1.00106
1.00079
1.00051
1.00023
0.999939
0.999652
0.999367
0.999086
0.998811
0.998543
0.998286
0.99804
1.00325
1.00322
1.00317
1.00309
1.00298
1.00286
1.0027
1.00253
1.00234
1.00212
1.00189
1.00164
1.00138
1.0011
1.00082
1.00052
1.00023
0.999924
0.999623
0.999323
0.999027
0.998738
0.998457
0.998187
0.997928
1.00341
1.00338
1.00333
1.00324
1.00313
1.003
1.00284
1.00265
1.00245
1.00222
1.00198
1.00171
1.00144
1.00115
1.00085
1.00054
1.00022
0.999907
0.99959
0.999275
0.998965
0.998661
0.998366
0.998082
0.997811
1.00359
1.00356
1.0035
1.00341
1.00329
1.00315
1.00298
1.00278
1.00257
1.00233
1.00207
1.00179
1.0015
1.00119
1.00088
1.00055
1.00022
0.999888
0.999555
0.999224
0.998898
0.998579
0.99827
0.997972
0.997687
1.00377
1.00374
1.00367
1.00358
1.00346
1.00331
1.00313
1.00292
1.00269
1.00244
1.00216
1.00187
1.00156
1.00124
1.00091
1.00056
1.00022
0.999867
0.999517
0.999169
0.998827
0.998493
0.998168
0.997855
0.997556
1.00396
1.00393
1.00386
1.00376
1.00363
1.00347
1.00328
1.00306
1.00282
1.00255
1.00226
1.00195
1.00163
1.00129
1.00094
1.00058
1.00021
0.999843
0.999475
0.99911
0.998751
0.9984
0.998059
0.997731
0.997418
1.00416
1.00413
1.00406
1.00395
1.00381
1.00364
1.00344
1.00321
1.00296
1.00267
1.00237
1.00204
1.0017
1.00134
1.00097
1.00059
1.0002
0.999816
0.99943
0.999046
0.998669
0.998301
0.997944
0.997601
0.997272
1.00438
1.00434
1.00426
1.00415
1.00401
1.00383
1.00361
1.00337
1.0031
1.0028
1.00248
1.00213
1.00177
1.00139
1.001
1.0006
1.00019
0.999786
0.99938
0.998978
0.998582
0.998196
0.997822
0.997462
0.997118
1.0046
1.00456
1.00448
1.00436
1.00421
1.00402
1.00379
1.00354
1.00325
1.00293
1.00259
1.00222
1.00184
1.00144
1.00103
1.00061
1.00018
0.999752
0.999325
0.998903
0.998488
0.998084
0.997692
0.997316
0.996956
1.00484
1.0048
1.00471
1.00459
1.00442
1.00422
1.00398
1.00371
1.0034
1.00307
1.0027
1.00232
1.00191
1.00149
1.00106
1.00061
1.00016
0.999714
0.999266
0.998822
0.998388
0.997964
0.997554
0.997161
0.996784
1.00509
1.00504
1.00495
1.00482
1.00465
1.00443
1.00418
1.00389
1.00356
1.00321
1.00283
1.00242
1.00199
1.00154
1.00109
1.00062
1.00015
0.999671
0.9992
0.998735
0.998279
0.997836
0.997407
0.996996
0.996603
1.00535
1.0053
1.00521
1.00507
1.00488
1.00465
1.00438
1.00408
1.00373
1.00336
1.00295
1.00252
1.00207
1.0016
1.00111
1.00062
1.00012
0.999623
0.999128
0.99864
0.998162
0.997698
0.99725
0.996821
0.996411
1.00562
1.00557
1.00547
1.00532
1.00513
1.00488
1.0046
1.00427
1.00391
1.00351
1.00308
1.00262
1.00214
1.00165
1.00114
1.00062
1.00009
0.999568
0.999048
0.998536
0.998036
0.997551
0.997083
0.996635
0.996207
1.00591
1.00586
1.00575
1.00559
1.00538
1.00513
1.00482
1.00448
1.00409
1.00367
1.00321
1.00273
1.00222
1.0017
1.00116
1.00061
1.00006
0.999506
0.99896
0.998424
0.9979
0.997393
0.996904
0.996437
0.995992
1.00622
1.00616
1.00605
1.00588
1.00566
1.00538
1.00506
1.00469
1.00428
1.00383
1.00335
1.00284
1.0023
1.00175
1.00118
1.0006
1.00002
0.999437
0.998863
0.998301
0.997753
0.997222
0.996713
0.996226
0.995763
1.00654
1.00648
1.00636
1.00618
1.00594
1.00565
1.00531
1.00491
1.00448
1.004
1.00349
1.00295
1.00238
1.00179
1.00119
1.00058
0.999968
0.999358
0.998756
0.998166
0.997593
0.997039
0.996508
0.996001
0.995521
1.00687
1.00681
1.00668
1.00649
1.00624
1.00593
1.00556
1.00515
1.00468
1.00418
1.00363
1.00306
1.00246
1.00184
1.0012
1.00056
0.999911
0.999269
0.998637
0.998019
0.997419
0.996841
0.996288
0.995762
0.995263
1.00723
1.00716
1.00702
1.00682
1.00655
1.00622
1.00583
1.00539
1.0049
1.00436
1.00378
1.00317
1.00253
1.00187
1.0012
1.00052
0.999844
0.999169
0.998505
0.997858
0.99723
0.996628
0.996052
0.995505
0.994989
1.0076
1.00753
1.00738
1.00716
1.00688
1.00652
1.00611
1.00564
1.00511
1.00454
1.00393
1.00328
1.00261
1.00191
1.0012
1.00048
0.999765
0.999056
0.998359
0.99768
0.997025
0.996397
0.995798
0.995231
0.994697
1.00799
1.00791
1.00776
1.00752
1.00722
1.00684
1.0064
1.0059
1.00534
1.00473
1.00408
1.00339
1.00268
1.00194
1.00119
1.00043
0.999674
0.998927
0.998196
0.997485
0.996801
0.996146
0.995524
0.994937
0.994386
1.0084
1.00832
1.00815
1.0079
1.00758
1.00718
1.00671
1.00617
1.00557
1.00493
1.00423
1.0035
1.00274
1.00196
1.00116
1.00036
0.999568
0.998782
0.998014
0.99727
0.996556
0.995874
0.995229
0.994622
0.994053
1.00883
1.00874
1.00856
1.0083
1.00795
1.00752
1.00702
1.00645
1.00581
1.00512
1.00439
1.00361
1.0028
1.00197
1.00113
1.00028
0.999444
0.998618
0.997812
0.997033
0.996288
0.995579
0.99491
0.994283
0.993698
1.00928
1.00919
1.009
1.00871
1.00834
1.00788
1.00735
1.00674
1.00606
1.00532
1.00454
1.00371
1.00285
1.00197
1.00108
1.00019
0.999302
0.998432
0.997586
0.996772
0.995994
0.995257
0.994565
0.993919
0.993318
1.00976
1.00965
1.00945
1.00915
1.00875
1.00826
1.00768
1.00703
1.00631
1.00552
1.00469
1.00381
1.00289
1.00196
1.00102
1.00007
0.999136
0.998221
0.997334
0.996482
0.995671
0.994907
0.994191
0.993526
0.992912
1.01025
1.01014
1.00992
1.0096
1.00917
1.00865
1.00803
1.00733
1.00656
1.00572
1.00483
1.00389
1.00292
1.00193
1.00093
0.999932
0.998946
0.997983
0.997052
0.996161
0.995317
0.994524
0.993785
0.993103
0.992475
1.01077
1.01065
1.01042
1.01007
1.00961
1.00905
1.00839
1.00764
1.00682
1.00592
1.00497
1.00397
1.00294
1.00189
1.00082
0.999767
0.998726
0.997712
0.996736
0.995805
0.994927
0.994106
0.993344
0.992645
0.992007
1.01131
1.01118
1.01093
1.01056
1.01007
1.00946
1.00876
1.00796
1.00708
1.00612
1.0051
1.00404
1.00294
1.00182
1.00069
0.999572
0.998473
0.997406
0.996382
0.99541
0.994497
0.993647
0.992865
0.99215
0.991503
1.01187
1.01174
1.01147
1.01106
1.01054
1.00989
1.00914
1.00828
1.00733
1.00631
1.00522
1.00408
1.00291
1.00172
1.00053
0.999342
0.998182
0.997059
0.995986
0.994971
0.994022
0.993145
0.992342
0.991615
0.99096
1.01246
1.01231
1.01202
1.01159
1.01102
1.01033
1.00952
1.0086
1.00759
1.00649
1.00533
1.00411
1.00286
1.0016
1.00033
0.999072
0.997847
0.996666
0.99554
0.994482
0.993498
0.992593
0.991772
0.991033
0.990374
1.01307
1.01291
1.0126
1.01213
1.01153
1.01078
1.00991
1.00892
1.00783
1.00666
1.00542
1.00412
1.00278
1.00144
1.00009
0.998757
0.997463
0.99622
0.995041
0.993937
0.992917
0.991986
0.991147
0.990399
0.989737
1.0137
1.01353
1.01319
1.01269
1.01204
1.01124
1.0103
1.00924
1.00807
1.00681
1.00548
1.00409
1.00267
1.00123
0.999798
0.998389
0.997022
0.995714
0.994479
0.993329
0.992273
0.991316
0.990461
0.989703
0.989034
1.01435
1.01417
1.01381
1.01327
1.01256
1.0117
1.01069
1.00955
1.0083
1.00695
1.00552
1.00403
1.00251
1.00098
0.999454
0.99796
0.996515
0.995139
0.993846
0.992648
0.991555
0.990571
0.989696
0.988924
0.98824
1.01502
1.01483
1.01443
1.01385
1.01309
1.01216
1.01108
1.00985
1.0085
1.00705
1.00552
1.00393
1.0023
1.00067
0.999045
0.99746
0.995933
0.994484
0.993129
0.99188
0.990745
0.989729
0.988827
0.988029
0.987305
1.01571
1.0155
1.01508
1.01445
1.01363
1.01263
1.01146
1.01014
1.00868
1.00712
1.00548
1.00377
1.00203
1.00029
0.99856
0.996877
0.995261
0.993732
0.992307
0.990998
0.989813
0.988751
0.987805
0.986953
0.986152
1.01642
1.01619
1.01573
1.01505
1.01417
1.01308
1.01182
1.0104
1.00883
1.00716
1.00539
1.00356
1.00169
0.999825
0.99798
0.996187
0.994471
0.99285
0.991341
0.989957
0.988701
0.987569
0.98655
0.985601
0.984694
1.01713
1.01688
1.01639
1.01566
1.0147
1.01353
1.01217
1.01063
1.00894
1.00713
1.00523
1.00326
1.00126
0.999249
0.997271
0.995352
0.993515
0.991779
0.990162
0.988674
0.987314
0.986082
0.984942
0.983865
0.982834
1.01786
1.01759
1.01705
1.01626
1.01522
1.01396
1.01248
1.01081
1.00899
1.00703
1.00497
1.00284
1.00068
0.998507
0.996368
0.994293
0.992304
0.990419
0.988656
0.987024
0.985527
0.984145
0.98286
0.981667
0.980524
1.0186
1.0183
1.01772
1.01686
1.01573
1.01435
1.01274
1.01092
1.00894
1.0068
1.00456
1.00224
0.99988
0.997499
0.99516
0.992889
0.990702
0.988623
0.986675
0.984866
0.983193
0.981667
0.980283
0.979016
0.977865
1.01934
1.01902
1.01838
1.01743
1.01619
1.01467
1.0129
1.01091
1.00872
1.00637
1.0039
1.00134
0.998736
0.996079
0.993493
0.990986
0.988561
0.986254
0.984099
0.982112
0.980309
0.9787
0.977298
0.976106
0.975146
1.02007
1.01971
1.019
1.01794
1.01656
1.01487
1.0129
1.01068
1.00824
1.00562
1.00286
1.00001
0.997086
0.994129
0.99124
0.988484
0.985817
0.983294
0.980972
0.978884
0.977057
0.97551
0.974267
0.973343
0.972743
1.02075
1.02035
1.01955
1.01836
1.0168
1.01489
1.01267
1.01017
1.00743
1.00449
1.00138
0.998195
0.994957
0.991712
0.988515
0.985495
0.982646
0.980009
0.977644
0.975603
0.973916
0.972605
0.971682
0.971141
0.970958
1.02136
1.0209
1.01999
1.01864
1.01688
1.01474
1.01224
1.00943
1.00637
1.00311
0.999675
0.996148
0.992634
0.98916
0.985763
0.982556
0.979641
0.977028
0.974767
0.972908
0.971474
0.970472
0.969889
0.969693
0.96983
1.0219
1.0214
1.02039
1.01891
1.01697
1.01461
1.01187
1.00881
1.00547
1.00195
0.998281
0.994538
0.990817
0.987187
0.983714
0.980494
0.977596
0.975064
0.97294
0.971255
0.97002
0.969227
0.968845
0.968829
0.969117
1.02236
1.02183
1.02077
1.0192
1.01717
1.01469
1.01183
1.00864
1.00517
1.00151
0.997735
0.9939
0.990102
0.986424
0.982921
0.979688
0.976795
0.974289
0.972205
0.970568
0.969383
0.968636
0.968296
0.968317
0.968638
0.999689
0.999907
1.00004
1.00001
0.999935
0.999884
0.999852
0.999823
0.999792
0.999763
0.999739
0.999721
0.99971
0.999706
0.999703
0.999699
0.999692
0.999683
0.999674
0.99965
0.999675
0.999551
0.998963
0.997825
0.997992
0.999824
0.999871
0.999952
0.999939
0.99989
0.99985
0.999823
0.999798
0.999773
0.999749
0.99973
0.999718
0.999712
0.99971
0.999706
0.999701
0.999694
0.999686
0.999676
0.999655
0.999682
0.999536
0.998873
0.99773
0.9979
0.999899
0.99987
0.999906
0.999898
0.999858
0.999824
0.999801
0.999781
0.999759
0.99974
0.999726
0.999718
0.999714
0.999711
0.999707
0.999702
0.999696
0.999689
0.999679
0.999661
0.999685
0.999524
0.998844
0.997679
0.997816
0.999822
0.999832
0.999859
0.999864
0.999838
0.999811
0.999788
0.999769
0.99975
0.999734
0.999724
0.999718
0.999715
0.999712
0.999709
0.999704
0.999699
0.999693
0.999683
0.999668
0.999689
0.999509
0.998792
0.997614
0.997729
0.999875
0.999846
0.999843
0.999836
0.999814
0.999789
0.99977
0.999756
0.999741
0.99973
0.999722
0.999717
0.999714
0.999712
0.99971
0.999707
0.999702
0.999698
0.999687
0.999677
0.999693
0.999492
0.998753
0.997557
0.997603
0.999827
0.99981
0.999808
0.999807
0.999794
0.999777
0.999761
0.999747
0.999735
0.999726
0.99972
0.999716
0.999714
0.999712
0.999711
0.999709
0.999706
0.999703
0.999693
0.999688
0.999702
0.99948
0.998719
0.997485
0.997454
0.999825
0.99981
0.999801
0.999793
0.99978
0.999764
0.999751
0.999739
0.999729
0.999722
0.999717
0.999714
0.999712
0.999711
0.999712
0.999711
0.99971
0.999709
0.9997
0.9997
0.999714
0.999469
0.998689
0.997415
0.997293
0.999816
0.999798
0.999786
0.999778
0.999767
0.999755
0.999743
0.999733
0.999724
0.999718
0.999713
0.999711
0.99971
0.999711
0.999712
0.999713
0.999714
0.999715
0.999708
0.999715
0.999723
0.999458
0.998654
0.997343
0.997124
0.999811
0.999793
0.99978
0.999769
0.999759
0.999747
0.999735
0.999725
0.999717
0.999712
0.999708
0.999707
0.999707
0.999709
0.999712
0.999716
0.999718
0.999722
0.999717
0.99973
0.999732
0.999444
0.998611
0.997265
0.996951
0.999807
0.999788
0.999773
0.999761
0.99975
0.999738
0.999727
0.999717
0.99971
0.999705
0.999703
0.999703
0.999704
0.999708
0.999712
0.999718
0.999723
0.999728
0.999726
0.999745
0.99974
0.999426
0.998566
0.99718
0.99678
0.999803
0.999782
0.999766
0.999752
0.99974
0.999729
0.999717
0.999708
0.999702
0.999698
0.999697
0.999698
0.999701
0.999706
0.999712
0.999719
0.999727
0.999735
0.999735
0.99976
0.999746
0.999405
0.998515
0.997089
0.996617
0.999797
0.999775
0.999758
0.999743
0.99973
0.999718
0.999707
0.999698
0.999693
0.99969
0.99969
0.999692
0.999697
0.999703
0.999712
0.999721
0.999731
0.999741
0.999745
0.999774
0.999749
0.99938
0.998461
0.996991
0.996458
0.99979
0.999767
0.999749
0.999733
0.999719
0.999707
0.999696
0.999688
0.999683
0.999681
0.999682
0.999686
0.999692
0.9997
0.999711
0.999722
0.999735
0.999747
0.999754
0.999788
0.99975
0.999351
0.998405
0.996891
0.996297
0.999782
0.999758
0.999739
0.999722
0.999707
0.999695
0.999684
0.999676
0.999672
0.999671
0.999674
0.999679
0.999687
0.999697
0.999709
0.999723
0.999739
0.999753
0.999764
0.999801
0.999748
0.999317
0.998348
0.99679
0.996126
0.999773
0.999748
0.999728
0.99971
0.999694
0.999681
0.999671
0.999664
0.99966
0.999661
0.999664
0.999671
0.99968
0.999692
0.999707
0.999723
0.999742
0.999759
0.999774
0.999814
0.999746
0.99928
0.998283
0.996683
0.995947
0.999763
0.999737
0.999716
0.999697
0.999681
0.999667
0.999657
0.999651
0.999648
0.999649
0.999654
0.999662
0.999673
0.999687
0.999704
0.999723
0.999745
0.999764
0.999785
0.999828
0.99974
0.999241
0.998213
0.996575
0.995768
0.999752
0.999725
0.999702
0.999683
0.999666
0.999652
0.999642
0.999636
0.999634
0.999636
0.999643
0.999652
0.999665
0.999682
0.999701
0.999722
0.999748
0.99977
0.999796
0.999842
0.999732
0.999201
0.998138
0.996465
0.995589
0.99974
0.999712
0.999688
0.999667
0.99965
0.999636
0.999626
0.99962
0.999619
0.999622
0.99963
0.999641
0.999656
0.999675
0.999697
0.999721
0.99975
0.999775
0.999807
0.999854
0.999722
0.999159
0.998058
0.99635
0.995411
0.999727
0.999698
0.999673
0.999651
0.999633
0.999619
0.999609
0.999603
0.999603
0.999607
0.999616
0.999629
0.999646
0.999667
0.999692
0.999719
0.999751
0.999779
0.999818
0.999864
0.999709
0.999111
0.997969
0.996227
0.995233
0.999713
0.999683
0.999657
0.999634
0.999615
0.9996
0.99959
0.999585
0.999585
0.999591
0.999601
0.999615
0.999635
0.999658
0.999685
0.999716
0.999751
0.999783
0.999828
0.999873
0.99969
0.999055
0.997869
0.99609
0.995052
0.999699
0.999667
0.999639
0.999615
0.999596
0.99958
0.99957
0.999566
0.999566
0.999572
0.999584
0.9996
0.999622
0.999648
0.999678
0.999712
0.99975
0.999786
0.999837
0.99988
0.999665
0.99899
0.997758
0.995944
0.994871
0.999683
0.999649
0.99962
0.999595
0.999575
0.999559
0.999549
0.999544
0.999546
0.999553
0.999565
0.999584
0.999607
0.999636
0.999669
0.999706
0.999748
0.999787
0.999845
0.999884
0.999633
0.998916
0.997639
0.995794
0.994694
0.999666
0.999631
0.9996
0.999573
0.999552
0.999536
0.999526
0.999521
0.999523
0.999531
0.999545
0.999565
0.999591
0.999622
0.999658
0.999699
0.999745
0.999788
0.999851
0.999884
0.999593
0.998835
0.997513
0.995648
0.994526
0.999647
0.99961
0.999578
0.99955
0.999528
0.999511
0.999501
0.999496
0.999499
0.999508
0.999523
0.999545
0.999573
0.999607
0.999646
0.99969
0.99974
0.999787
0.999856
0.99988
0.999546
0.998748
0.997384
0.995506
0.994366
0.999627
0.999588
0.999554
0.999525
0.999502
0.999485
0.999474
0.99947
0.999472
0.999482
0.999499
0.999523
0.999553
0.99959
0.999632
0.99968
0.999733
0.999785
0.999859
0.999872
0.99949
0.998654
0.997248
0.995365
0.994213
0.999606
0.999565
0.999529
0.999499
0.999474
0.999456
0.999445
0.999441
0.999444
0.999455
0.999473
0.999498
0.999531
0.99957
0.999616
0.999668
0.999725
0.999781
0.99986
0.999859
0.999428
0.998552
0.997106
0.995223
0.994062
0.999584
0.99954
0.999502
0.99947
0.999445
0.999426
0.999414
0.99941
0.999413
0.999425
0.999444
0.999472
0.999507
0.999549
0.999597
0.999653
0.999714
0.999775
0.999859
0.99984
0.99936
0.998445
0.996958
0.995077
0.99391
0.999559
0.999514
0.999474
0.99944
0.999413
0.999393
0.999381
0.999376
0.99938
0.999393
0.999413
0.999442
0.99948
0.999525
0.999577
0.999637
0.999701
0.999768
0.999855
0.999815
0.999284
0.998331
0.996803
0.994925
0.993756
0.999533
0.999485
0.999443
0.999407
0.999379
0.999358
0.999345
0.99934
0.999345
0.999358
0.999379
0.99941
0.99945
0.999498
0.999553
0.999618
0.999686
0.999758
0.999847
0.999783
0.999199
0.998212
0.996643
0.99477
0.9936
0.999506
0.999455
0.999411
0.999373
0.999343
0.99932
0.999307
0.999302
0.999306
0.99932
0.999343
0.999375
0.999417
0.999468
0.999527
0.999596
0.999668
0.999745
0.999836
0.999744
0.999105
0.998086
0.996479
0.994612
0.993443
0.999477
0.999423
0.999376
0.999336
0.999304
0.99928
0.999266
0.99926
0.999265
0.999279
0.999303
0.999337
0.999381
0.999435
0.999498
0.99957
0.999646
0.999729
0.999821
0.999696
0.999002
0.99795
0.99631
0.994452
0.993288
0.999445
0.999389
0.999339
0.999297
0.999263
0.999238
0.999222
0.999216
0.99922
0.999235
0.99926
0.999295
0.999342
0.999399
0.999465
0.999542
0.999622
0.99971
0.9998
0.999639
0.99889
0.997805
0.996136
0.994291
0.993134
0.999412
0.999352
0.9993
0.999255
0.999219
0.999192
0.999175
0.999168
0.999172
0.999187
0.999213
0.99925
0.999299
0.999358
0.999428
0.999509
0.999593
0.999687
0.999774
0.999572
0.998768
0.997651
0.995956
0.994126
0.99298
0.999377
0.999314
0.999258
0.99921
0.999172
0.999143
0.999125
0.999117
0.99912
0.999135
0.999162
0.999201
0.999252
0.999314
0.999388
0.999473
0.99956
0.999659
0.99974
0.999495
0.998635
0.997488
0.99577
0.993955
0.992822
0.99934
0.999273
0.999213
0.999163
0.999122
0.999091
0.999071
0.999062
0.999065
0.99908
0.999107
0.999148
0.9992
0.999265
0.999342
0.999431
0.999522
0.999626
0.999698
0.999406
0.998492
0.997313
0.995575
0.993777
0.992658
0.9993
0.999229
0.999166
0.999113
0.999069
0.999036
0.999014
0.999003
0.999006
0.999021
0.999048
0.99909
0.999144
0.999212
0.999292
0.999384
0.999478
0.999587
0.999648
0.999304
0.998336
0.997127
0.99537
0.993589
0.992486
0.999258
0.999183
0.999116
0.999059
0.999012
0.998977
0.998953
0.998941
0.998942
0.998957
0.998985
0.999027
0.999083
0.999154
0.999237
0.999332
0.999429
0.999542
0.999587
0.999187
0.998167
0.996926
0.995155
0.993389
0.992303
0.999213
0.999134
0.999063
0.999002
0.998952
0.998914
0.998887
0.998874
0.998874
0.998888
0.998916
0.998959
0.999017
0.99909
0.999176
0.999273
0.999373
0.999489
0.999515
0.999056
0.997983
0.99671
0.994925
0.993174
0.992105
0.999166
0.999082
0.999007
0.998942
0.998888
0.998847
0.998818
0.998803
0.998801
0.998815
0.998843
0.998887
0.998946
0.99902
0.999109
0.999208
0.999311
0.999427
0.999431
0.998907
0.997783
0.996477
0.994681
0.992942
0.991891
0.999116
0.999027
0.998947
0.998878
0.998821
0.998776
0.998744
0.998726
0.998724
0.998736
0.998764
0.998808
0.998868
0.998944
0.999035
0.999135
0.99924