/*--------------------------------*- C++ -*----------------------------------*\
| =========                 |                                                 |
| \\      /  F ield         | OpenFOAM: The Open Source CFD Toolbox           |
|  \\    /   O peration     | Version:  v1912                                 |
|   \\  /    A nd           | Website:  www.openfoam.com                      |
|    \\/     M anipulation  |                                                 |
\*---------------------------------------------------------------------------*/
FoamFile
{
    version     2.0;
    format      ascii;
    class       volScalarField;
    location    "1000";
    object      T;
}
// * * * * * * * * * * * * * * * * * * * * * * * * * * * * * * * * * * * * * //

dimensions      [0 0 0 1 0 0 0];


internalField   nonuniform List<scalar> 
9900
(
1.00047
1.00072
1.0006
1.00079
1.00075
1.00081
1.00077
1.00075
1.00067
1.00059
1.00047
1.00036
1.00025
1.00014
1.00006
0.999996
0.99996
0.999942
0.999966
1.00005
1.00022
1.00056
1.00105
1.00191
1.00303
1.00039
1.00042
1.00048
1.00048
1.0005
1.00049
1.00049
1.00046
1.00044
1.00039
1.00033
1.00026
1.00017
1.00008
0.999991
0.999897
0.999811
0.999742
0.999684
0.99968
0.999773
0.999932
1.00011
1.00025
0.999919
1.00011
0.999985
1.00015
0.999999
1.00012
1.00003
1.00006
1.00002
1.00001
0.999973
0.999941
0.999893
0.999831
0.999764
0.999678
0.999583
0.9995
0.999444
0.999471
0.999559
0.999753
1.00011
1.00055
1.00101
1.00153
1.00004
1
1.00003
0.999982
0.99995
0.999916
0.999858
0.999821
0.999761
0.999706
0.999651
0.999582
0.999507
0.999436
0.999376
0.999359
0.999375
0.999433
0.999552
0.999802
1.00017
1.0006
1.00101
1.00132
1.00149
1.00011
1.00007
1.00003
0.999997
0.999925
0.999883
0.999801
0.99973
0.99964
0.999554
0.999476
0.999405
0.999356
0.999345
0.999363
0.999412
0.999503
0.999666
0.999918
1.00024
1.00057
1.00088
1.00113
1.00129
1.0014
1.00017
1.00012
1.00005
0.999995
0.999904
0.999842
0.999762
0.999674
0.999593
0.99951
0.999444
0.999411
0.999414
0.999461
0.999555
0.999684
0.999848
1.00005
1.00028
1.00052
1.00072
1.00088
1.00102
1.00113
1.00123
1.00019
1.00014
1.00006
0.999995
0.999912
0.999845
0.999767
0.999689
0.999631
0.999584
0.999563
0.99958
0.999645
0.999746
0.99987
0.999992
1.00012
1.00027
1.00041
1.00054
1.00063
1.00071
1.00081
1.00095
1.0011
1.0002
1.00016
1.00007
1.00002
0.999954
0.9999
0.999836
0.999781
0.999756
0.999751
0.999769
0.999819
0.999893
0.99997
1.00004
1.00011
1.00019
1.00026
1.00032
1.00036
1.0004
1.00049
1.00064
1.00084
1.00103
1.00022
1.00017
1.0001
1.00006
1.00001
0.999978
0.99994
0.999911
0.999901
0.999907
0.999929
0.999958
0.99999
1.00002
1.00005
1.00007
1.00008
1.00008
1.00009
1.00012
1.0002
1.00035
1.00056
1.00079
1.00098
1.00024
1.00019
1.00014
1.0001
1.00007
1.00004
1.00001
0.999986
0.999974
0.999966
0.999963
0.999963
0.999965
0.999956
0.999933
0.999901
0.999873
0.999858
0.999873
0.999945
1.0001
1.00031
1.00055
1.00076
1.00093
1.00024
1.00019
1.00016
1.00013
1.00009
1.00005
1.00002
0.999994
0.999968
0.999942
0.999914
0.999888
0.999852
0.999807
0.999756
0.999709
0.999681
0.999686
0.999752
0.99989
1.00009
1.00033
1.00055
1.00072
1.00086
1.00024
1.00017
1.00016
1.00012
1.00008
1.00003
0.999987
0.999947
0.999902
0.999853
0.999804
0.999753
0.999699
0.999642
0.999592
0.999558
0.999559
0.999616
0.999735
0.999915
1.00014
1.00036
1.00053
1.00066
1.00079
1.00022
1.00015
1.00013
1.0001
1.00004
0.999974
0.999917
0.999861
0.999799
0.999735
0.999672
0.999613
0.999557
0.99951
0.999475
0.999476
0.999525
0.999624
0.999778
0.999972
1.00018
1.00036
1.00048
1.00058
1.00072
1.00019
1.00013
1.00009
1.00005
0.999982
0.999905
0.999833
0.999764
0.999693
0.999622
0.999557
0.9995
0.999457
0.999421
0.99943
0.99947
0.999549
0.999677
0.999844
1.00003
1.00019
1.00032
1.00041
1.0005
1.00066
1.00017
1.0001
1.00005
1
0.999926
0.99984
0.999757
0.999681
0.999606
0.999537
0.999478
0.999433
0.999403
0.999411
0.999437
0.999502
0.999608
0.999748
0.999904
1.00005
1.00017
1.00025
1.00032
1.00043
1.00062
1.00016
1.00009
1.00002
0.999958
0.999879
0.99979
0.999703
0.999625
0.999553
0.999491
0.999443
0.999413
0.99941
0.99943
0.999481
0.999566
0.999681
0.999812
0.99994
1.00004
1.00012
1.00017
1.00024
1.00038
1.00059
1.00016
1.00008
1
0.999929
0.999849
0.999761
0.999676
0.9996
0.999536
0.999484
0.999449
0.999435
0.999446
0.999484
0.999551
0.999641
0.999747
0.999852
0.999943
1.00001
1.00005
1.0001
1.00018
1.00034
1.00057
1.00017
1.00009
0.999995
0.999917
0.999838
0.999754
0.999673
0.999603
0.999548
0.999508
0.999485
0.999485
0.999509
0.999556
0.999625
0.999706
0.999789
0.999863
0.999918
0.999953
0.99998
1.00003
1.00014
1.00032
1.00056
1.00018
1.0001
1
0.99992
0.999842
0.999764
0.99969
0.999628
0.999582
0.999552
0.99954
0.999549
0.999579
0.999626
0.999685
0.999747
0.999804
0.999847
0.999874
0.99989
0.999917
0.999984
1.00012
1.00031
1.00055
1.00019
1.00011
1.00001
0.999934
0.999859
0.999787
0.99972
0.999666
0.999628
0.999606
0.999602
0.999614
0.999642
0.999681
0.999723
0.999763
0.999794
0.999812
0.999822
0.999832
0.999868
0.999956
1.00011
1.00031
1.00053
1.0002
1.00012
1.00003
0.999955
0.999884
0.999817
0.999757
0.99971
0.999677
0.99966
0.999658
0.999669
0.999689
0.999714
0.999738
0.999757
0.999767
0.999769
0.99977
0.999786
0.999838
0.999944
1.00011
1.00031
1.00051
1.00021
1.00013
1.00005
0.999978
0.999911
0.99985
0.999796
0.999753
0.999723
0.999707
0.999702
0.999707
0.999717
0.999728
0.999735
0.999737
0.999732
0.999727
0.999727
0.999754
0.999824
0.999946
1.00012
1.00031
1.00049
1.00021
1.00014
1.00007
1
0.999939
0.999882
0.999832
0.999792
0.999762
0.999743
0.999734
0.99973
0.999729
0.999727
0.99972
0.99971
0.999697
0.999688
0.999698
0.999738
0.999823
0.999957
1.00013
1.00031
1.00045
1.00021
1.00015
1.00008
1.00002
0.999964
0.999911
0.999864
0.999824
0.999792
0.999769
0.999753
0.999741
0.999729
0.999716
0.9997
0.999681
0.999667
0.999661
0.999681
0.999736
0.999833
0.999972
1.00014
1.00029
1.00042
1.00022
1.00016
1.0001
1.00004
0.999987
0.999936
0.99989
0.99985
0.999815
0.999786
0.999763
0.999742
0.999722
0.999701
0.999678
0.999658
0.999643
0.999649
0.999679
0.999744
0.99985
0.999988
1.00014
1.00028
1.00038
1.00022
1.00017
1.00011
1.00006
1.00001
0.999957
0.999912
0.99987
0.999831
0.999797
0.999767
0.999739
0.999712
0.999686
0.999661
0.999642
0.999633
0.999647
0.999687
0.999761
0.999869
1
1.00014
1.00026
1.00033
1.00023
1.00018
1.00013
1.00007
1.00002
0.999975
0.99993
0.999885
0.999843
0.999804
0.999768
0.999735
0.999703
0.999674
0.99965
0.999633
0.999634
0.999654
0.999702
0.999782
0.999889
1.00001
1.00013
1.00023
1.00029
1.00024
1.00019
1.00014
1.00009
1.00004
0.99999
0.999944
0.999898
0.999853
0.99981
0.999769
0.999732
0.999698
0.999668
0.999646
0.999634
0.999641
0.999668
0.999723
0.999804
0.999907
1.00002
1.00012
1.0002
1.00024
1.00025
1.0002
1.00015
1.0001
1.00005
1
0.999956
0.999909
0.999862
0.999816
0.999772
0.999732
0.999697
0.999668
0.999649
0.999643
0.999654
0.999688
0.999746
0.999826
0.999922
1.00002
1.00011
1.00017
1.00019
1.00027
1.00022
1.00017
1.00011
1.00006
1.00002
0.999968
0.99992
0.999871
0.999823
0.999778
0.999737
0.999702
0.999675
0.999659
0.999658
0.999674
0.999711
0.999769
0.999846
0.999933
1.00002
1.00009
1.00013
1.00014
1.00028
1.00023
1.00018
1.00013
1.00008
1.00003
0.99998
0.999931
0.999881
0.999833
0.999787
0.999746
0.999712
0.999687
0.999675
0.999677
0.999697
0.999735
0.999792
0.999862
0.999939
1.00001
1.00007
1.0001
1.0001
1.0003
1.00025
1.0002
1.00014
1.00009
1.00004
0.999993
0.999944
0.999894
0.999845
0.9998
0.99976
0.999727
0.999705
0.999695
0.9997
0.999721
0.999759
0.999812
0.999875
0.999941
0.999999
1.00004
1.00006
1.00005
1.00031
1.00027
1.00022
1.00016
1.00011
1.00006
1.00001
0.999958
0.999909
0.999861
0.999816
0.999777
0.999746
0.999726
0.999718
0.999725
0.999746
0.999782
0.99983
0.999885
0.999939
0.999984
1.00001
1.00002
1
1.00033
1.00029
1.00024
1.00018
1.00013
1.00008
1.00003
0.999976
0.999927
0.999879
0.999836
0.999798
0.999769
0.99975
0.999744
0.99975
0.999771
0.999803
0.999845
0.99989
0.999933
0.999966
0.999983
0.99998
0.999957
1.00035
1.00031
1.00026
1.0002
1.00015
1.0001
1.00005
0.999996
0.999947
0.999901
0.999859
0.999823
0.999795
0.999777
0.999771
0.999777
0.999794
0.999822
0.999856
0.999893
0.999924
0.999946
0.999952
0.999941
0.999913
1.00037
1.00033
1.00028
1.00023
1.00017
1.00012
1.00007
1.00002
0.999971
0.999925
0.999884
0.999849
0.999822
0.999805
0.999798
0.999802
0.999816
0.999838
0.999865
0.999892
0.999913
0.999924
0.999921
0.999902
0.99987
1.00039
1.00035
1.0003
1.00025
1.0002
1.00015
1.00009
1.00004
0.999996
0.999952
0.999911
0.999877
0.999851
0.999833
0.999825
0.999826
0.999836
0.999852
0.99987
0.999888
0.999899
0.9999
0.999889
0.999864
0.999828
1.00041
1.00037
1.00033
1.00028
1.00023
1.00017
1.00012
1.00007
1.00002
0.99998
0.99994
0.999907
0.99988
0.999861
0.999851
0.999849
0.999854
0.999863
0.999873
0.999881
0.999883
0.999875
0.999856
0.999826
0.999788
1.00043
1.00039
1.00035
1.0003
1.00025
1.0002
1.00015
1.0001
1.00005
1.00001
0.99997
0.999936
0.999909
0.999889
0.999876
0.99987
0.999869
0.999871
0.999873
0.999872
0.999865
0.999849
0.999824
0.999789
0.999748
1.00045
1.00042
1.00038
1.00033
1.00028
1.00023
1.00018
1.00013
1.00008
1.00004
1
0.999967
0.999938
0.999916
0.999899
0.999888
0.999881
0.999876
0.99987
0.999861
0.999846
0.999822
0.999791
0.999752
0.999709
1.00048
1.00045
1.00041
1.00036
1.00031
1.00026
1.00021
1.00016
1.00012
1.00007
1.00003
0.999996
0.999966
0.999941
0.999921
0.999905
0.999892
0.999879
0.999865
0.999848
0.999825
0.999795
0.999758
0.999716
0.99967
1.0005
1.00047
1.00044
1.00039
1.00035
1.0003
1.00025
1.0002
1.00015
1.0001
1.00006
1.00003
0.999993
0.999964
0.99994
0.999919
0.999899
0.99988
0.999858
0.999833
0.999803
0.999767
0.999725
0.99968
0.999632
1.00053
1.0005
1.00047
1.00042
1.00038
1.00033
1.00028
1.00023
1.00018
1.00014
1.00009
1.00005
1.00002
0.999986
0.999957
0.99993
0.999904
0.999878
0.999849
0.999817
0.99978
0.999738
0.999692
0.999643
0.999593
1.00056
1.00053
1.0005
1.00046
1.00041
1.00036
1.00032
1.00027
1.00022
1.00017
1.00012
1.00008
1.00004
1.00001
0.999972
0.99994
0.999907
0.999874
0.999838
0.999799
0.999756
0.999709
0.999659
0.999606
0.999554
1.00059
1.00056
1.00053
1.00049
1.00045
1.0004
1.00035
1.0003
1.00025
1.0002
1.00015
1.00011
1.00007
1.00003
0.999986
0.999947
0.999908
0.999868
0.999826
0.99978
0.999731
0.999679
0.999624
0.999569
0.999515
1.00063
1.0006
1.00057
1.00053
1.00048
1.00044
1.00039
1.00034
1.00028
1.00023
1.00018
1.00013
1.00009
1.00004
0.999997
0.999953
0.999908
0.999861
0.999812
0.99976
0.999705
0.999648
0.999589
0.999531
0.999475
1.00066
1.00063
1.0006
1.00056
1.00052
1.00047
1.00042
1.00037
1.00032
1.00026
1.00021
1.00016
1.00011
1.00006
1.00001
0.999957
0.999905
0.999852
0.999796
0.999738
0.999678
0.999616
0.999554
0.999492
0.999433
1.0007
1.00067
1.00064
1.0006
1.00056
1.00051
1.00046
1.00041
1.00035
1.0003
1.00024
1.00018
1.00013
1.00007
1.00002
0.999959
0.999901
0.999841
0.999779
0.999715
0.99965
0.999583
0.999517
0.999452
0.99939
1.00074
1.00071
1.00068
1.00064
1.0006
1.00055
1.0005
1.00044
1.00038
1.00033
1.00027
1.00021
1.00015
1.00008
1.00002
0.99996
0.999895
0.999829
0.999761
0.999691
0.999621
0.999549
0.999479
0.999411
0.999347
1.00078
1.00075
1.00072
1.00068
1.00064
1.00059
1.00054
1.00048
1.00042
1.00036
1.00029
1.00023
1.00016
1.0001
1.00003
0.999961
0.99989
0.999818
0.999744
0.999668
0.999592
0.999516
0.999442
0.99937
0.999302
1.00082
1.0008
1.00077
1.00073
1.00068
1.00063
1.00058
1.00052
1.00045
1.00039
1.00032
1.00025
1.00018
1.00011
1.00003
0.999959
0.999881
0.999803
0.999723
0.999641
0.99956
0.999479
0.9994
0.999324
0.999253
1.00087
1.00084
1.00081
1.00077
1.00073
1.00067
1.00062
1.00055
1.00049
1.00042
1.00035
1.00027
1.0002
1.00012
1.00004
0.999957
0.999873
0.999788
0.999702
0.999615
0.999528
0.999442
0.999359
0.999279
0.999204
1.00092
1.00089
1.00086
1.00082
1.00077
1.00072
1.00066
1.00059
1.00052
1.00045
1.00038
1.0003
1.00021
1.00013
1.00004
0.999954
0.999864
0.999772
0.99968
0.999587
0.999495
0.999404
0.999316
0.999232
0.999153
1.00097
1.00094
1.00091
1.00087
1.00082
1.00076
1.0007
1.00063
1.00056
1.00048
1.0004
1.00032
1.00023
1.00014
1.00005
0.999951
0.999854
0.999756
0.999657
0.999559
0.999461
0.999365
0.999272
0.999183
0.9991
1.00102
1.001
1.00096
1.00092
1.00087
1.00081
1.00075
1.00068
1.0006
1.00052
1.00043
1.00034
1.00025
1.00015
1.00005
0.999948
0.999844
0.999739
0.999634
0.999529
0.999425
0.999324
0.999226
0.999132
0.999044
1.00108
1.00105
1.00102
1.00097
1.00092
1.00086
1.00079
1.00072
1.00064
1.00055
1.00046
1.00036
1.00026
1.00016
1.00005
0.999943
0.999833
0.999721
0.99961
0.999498
0.999388
0.999281
0.999178
0.999079
0.998986
1.00114
1.00111
1.00108
1.00103
1.00098
1.00091
1.00084
1.00076
1.00068
1.00059
1.00049
1.00039
1.00028
1.00017
1.00005
0.999939
0.999821
0.999703
0.999584
0.999466
0.99935
0.999237
0.999128
0.999024
0.998926
1.0012
1.00118
1.00114
1.00109
1.00103
1.00097
1.00089
1.00081
1.00072
1.00062
1.00052
1.00041
1.0003
1.00018
1.00006
0.999934
0.999809
0.999683
0.999557
0.999433
0.99931
0.999191
0.999076
0.998966
0.998863
1.00127
1.00124
1.0012
1.00115
1.00109
1.00102
1.00095
1.00086
1.00076
1.00066
1.00055
1.00043
1.00031
1.00019
1.00006
0.999928
0.999796
0.999663
0.99953
0.999398
0.999269
0.999143
0.999021
0.998906
0.998796
1.00134
1.00131
1.00127
1.00122
1.00116
1.00108
1.001
1.00091
1.00081
1.0007
1.00058
1.00046
1.00033
1.0002
1.00006
0.999922
0.999782
0.999641
0.9995
0.999361
0.999225
0.999093
0.998965
0.998843
0.998727
1.00141
1.00138
1.00134
1.00129
1.00122
1.00115
1.00106
1.00096
1.00085
1.00074
1.00061
1.00048
1.00035
1.00021
1.00006
0.999916
0.999767
0.999618
0.99947
0.999323
0.99918
0.99904
0.998905
0.998777
0.998655
1.00149
1.00146
1.00142
1.00136
1.00129
1.00121
1.00112
1.00101
1.0009
1.00078
1.00065
1.00051
1.00037
1.00022
1.00006
0.999908
0.999751
0.999594
0.999438
0.999283
0.999132
0.998985
0.998843
0.998708
0.998579
1.00157
1.00154
1.0015
1.00144
1.00136
1.00128
1.00118
1.00107
1.00095
1.00082
1.00068
1.00054
1.00038
1.00023
1.00006
0.9999
0.999735
0.999569
0.999404
0.999241
0.999082
0.998927
0.998778
0.998636
0.9985
1.00166
1.00163
1.00158
1.00152
1.00144
1.00135
1.00125
1.00113
1.001
1.00087
1.00072
1.00056
1.0004
1.00024
1.00007
0.999892
0.999716
0.999541
0.999367
0.999196
0.999029
0.998866
0.99871
0.99856
0.998417
1.00175
1.00172
1.00167
1.0016
1.00152
1.00142
1.00132
1.00119
1.00106
1.00091
1.00076
1.00059
1.00042
1.00025
1.00007
0.999882
0.999697
0.999512
0.999329
0.999149
0.998973
0.998802
0.998638
0.99848
0.99833
1.00185
1.00181
1.00176
1.00169
1.0016
1.0015
1.00139
1.00126
1.00112
1.00096
1.0008
1.00062
1.00044
1.00026
1.00006
0.99987
0.999675
0.999481
0.999288
0.999099
0.998914
0.998734
0.998562
0.998396
0.998239
1.00195
1.00191
1.00185
1.00178
1.00169
1.00159
1.00146
1.00133
1.00117
1.00101
1.00084
1.00065
1.00046
1.00026
1.00006
0.999858
0.999652
0.999447
0.999244
0.999045
0.998851
0.998663
0.998481
0.998308
0.998143
1.00205
1.00201
1.00196
1.00188
1.00178
1.00167
1.00154
1.0014
1.00124
1.00106
1.00088
1.00068
1.00048
1.00027
1.00006
0.999843
0.999626
0.99941
0.999197
0.998988
0.998784
0.998586
0.998396
0.998215
0.998041
1.00216
1.00212
1.00206
1.00198
1.00188
1.00176
1.00162
1.00147
1.0013
1.00112
1.00092
1.00071
1.0005
1.00028
1.00005
0.999826
0.999598
0.99937
0.999146
0.998926
0.998712
0.998505
0.998307
0.998116
0.997935
1.00228
1.00224
1.00218
1.00209
1.00198
1.00186
1.00171
1.00155
1.00137
1.00117
1.00096
1.00075
1.00052
1.00029
1.00005
0.999807
0.999566
0.999326
0.99909
0.99886
0.998635
0.998419
0.998211
0.998012
0.997823
1.0024
1.00236
1.00229
1.0022
1.00209
1.00195
1.0018
1.00163
1.00143
1.00123
1.00101
1.00078
1.00054
1.00029
1.00004
0.999785
0.99953
0.999278
0.99903
0.998788
0.998553
0.998327
0.998109
0.997902
0.997704
1.00253
1.00249
1.00242
1.00232
1.0022
1.00206
1.00189
1.00171
1.00151
1.00129
1.00105
1.00081
1.00055
1.00029
1.00003
0.999759
0.999491
0.999226
0.998965
0.998711
0.998465
0.998228
0.998001
0.997785
0.997579
1.00267
1.00262
1.00255
1.00244
1.00232
1.00217
1.00199
1.00179
1.00158
1.00135
1.0011
1.00084
1.00057
1.00029
1.00001
0.999729
0.999446
0.999167
0.998893
0.998627
0.998369
0.998122
0.997885
0.99766
0.997446
1.00281
1.00276
1.00268
1.00257
1.00244
1.00228
1.00209
1.00188
1.00165
1.00141
1.00115
1.00087
1.00058
1.00029
0.999993
0.999694
0.999396
0.999102
0.998815
0.998535
0.998266
0.998007
0.997761
0.997527
0.997305
1.00297
1.00291
1.00283
1.00271
1.00257
1.00239
1.0022
1.00198
1.00173
1.00147
1.00119
1.0009
1.00059
1.00028
0.99997
0.999654
0.99934
0.999031
0.998728
0.998436
0.998154
0.997884
0.997628
0.997385
0.997155
1.00312
1.00307
1.00298
1.00285
1.0027
1.00252
1.00231
1.00207
1.00181
1.00153
1.00124
1.00092
1.0006
1.00027
0.999941
0.999607
0.999276
0.998951
0.998633
0.998326
0.998032
0.997751
0.997485
0.997233
0.996996
1.00329
1.00323
1.00313
1.003
1.00284
1.00264
1.00242
1.00217
1.00189
1.00159
1.00128
1.00095
1.00061
1.00026
0.999906
0.999553
0.999204
0.998861
0.998528
0.998207
0.997899
0.997607
0.99733
0.99707
0.996825
1.00346
1.0034
1.0033
1.00316
1.00298
1.00277
1.00253
1.00227
1.00197
1.00166
1.00132
1.00097
1.00061
1.00024
0.999863
0.999491
0.999122
0.998761
0.998412
0.998075
0.997754
0.99745
0.997163
0.996895
0.996643
1.00364
1.00358
1.00347
1.00332
1.00313
1.00291
1.00265
1.00237
1.00205
1.00172
1.00136
1.00099
1.0006
1.00021
0.999812
0.999418
0.999029
0.998649
0.998282
0.99793
0.997595
0.997279
0.996983
0.996706
0.996448
1.00383
1.00376
1.00364
1.00349
1.00329
1.00305
1.00278
1.00247
1.00214
1.00178
1.00139
1.001
1.00059
1.00017
0.999751
0.999334
0.998924
0.998524
0.998138
0.99777
0.997421
0.997093
0.996787
0.996502
0.996238
1.00403
1.00395
1.00383
1.00366
1.00345
1.00319
1.0029
1.00257
1.00222
1.00183
1.00143
1.001
1.00057
1.00012
0.999678
0.999237
0.998803
0.998382
0.997978
0.997592
0.997229
0.996889
0.996573
0.996281
0.996012
1.00424
1.00415
1.00402
1.00384
1.00361
1.00334
1.00303
1.00268
1.00229
1.00188
1.00145
1.001
1.00053
1.00006
0.999591
0.999124
0.998666
0.998223
0.997798
0.997395
0.997017
0.996665
0.99634
0.996041
0.995767
1.00445
1.00436
1.00422
1.00402
1.00378
1.00349
1.00315
1.00278
1.00237
1.00193
1.00147
1.00098
1.00049
0.999989
0.999488
0.998993
0.998509
0.998043
0.997597
0.997176
0.996783
0.996419
0.996084
0.995779
0.995502
1.00467
1.00458
1.00442
1.00421
1.00395
1.00364
1.00328
1.00288
1.00244
1.00197
1.00147
1.00096
1.00043
0.999898
0.999366
0.998841
0.99833
0.997838
0.997371
0.996931
0.996523
0.996147
0.995804
0.995494
0.995215
1.0049
1.00479
1.00463
1.00441
1.00413
1.00379
1.0034
1.00297
1.0025
1.002
1.00147
1.00092
1.00036
0.999787
0.999221
0.998665
0.998125
0.997607
0.997116
0.996658
0.996233
0.995846
0.995496
0.995183
0.994907
1.00513
1.00502
1.00484
1.0046
1.0043
1.00394
1.00352
1.00306
1.00256
1.00202
1.00145
1.00086
1.00026
0.999652
0.99905
0.99846
0.997889
0.997343
0.996829
0.996351
0.995911
0.995514
0.995159
0.994849
0.994582
1.00536
1.00525
1.00506
1.0048
1.00447
1.00408
1.00364
1.00314
1.0026
1.00202
1.00141
1.00078
1.00014
0.999489
0.998848
0.998222
0.997618
0.997043
0.996504
0.996007
0.995554
0.99515
0.994797
0.994499
0.994257
1.0056
1.00547
1.00527
1.00499
1.00464
1.00422
1.00374
1.00321
1.00262
1.002
1.00135
1.00067
0.999982
0.999292
0.99861
0.997945
0.997306
0.996702
0.99614
0.995626
0.995165
0.994763
0.994425
0.994159
0.993972
1.00583
1.0057
1.00548
1.00518
1.0048
1.00435
1.00383
1.00325
1.00263
1.00196
1.00125
1.00053
0.999792
0.999055
0.998329
0.997625
0.996952
0.99632
0.995739
0.995216
0.994759
0.994376
0.994081
0.993885
0.993809
1.00606
1.00591
1.00567
1.00535
1.00494
1.00445
1.0039
1.00328
1.0026
1.00188
1.00112
1.00035
0.99956
0.998775
0.998005
0.997263
0.99656
0.995909
0.99532
0.994806
0.994376
0.994048
0.993842
0.993767
0.993856
1.00627
1.00611
1.00585
1.0055
1.00506
1.00454
1.00394
1.00327
1.00254
1.00177
1.00096
1.00013
0.999289
0.998458
0.99765
0.996879
0.99616
0.995507
0.994936
0.994464
0.994101
0.993883
0.993811
0.993921
0.994233
1.00645
1.00628
1.00601
1.00563
1.00515
1.00459
1.00394
1.00322
1.00244
1.00162
1.00076
0.999881
0.999
0.998136
0.997306
0.996528
0.99582
0.995201
0.99469
0.994309
0.994057
0.994021
0.994141
0.994482
0.995056
1.00659
1.00641
1.00612
1.00571
1.0052
1.0046
1.00391
1.00315
1.00233
1.00146
1.00057
0.999658
0.998756
0.997885
0.997067
0.996322
0.995669
0.995132
0.994736
0.994493
0.994443
0.994585
0.994938
0.995497
0.996236
1.00668
1.00649
1.00618
1.00575
1.00522
1.00459
1.00388
1.00309
1.00225
1.00137
1.00046
0.999556
0.998674
0.997845
0.997087
0.996422
0.995874
0.995468
0.995229
0.995164
0.995299
0.995632
0.996137
0.996796
0.997558
1.00669
1.0065
1.00619
1.00576
1.00523
1.0046
1.00389
1.00312
1.00229
1.00143
1.00057
0.999715
0.998914
0.998175
0.997516
0.996969
0.996557
0.996298
0.996209
0.996291
0.996538
0.99694
0.99746
0.998056
0.998675
1.00665
1.00647
1.00617
1.00577
1.00527
1.00468
1.00402
1.0033
1.00254
1.00176
1.00099
1.00024
0.999553
0.998918
0.998372
0.997945
0.997649
0.997488
0.997467
0.997579
0.997809
0.998133
0.998516
0.998925
0.999323
1.00658
1.00642
1.00616
1.00581
1.00537
1.00485
1.00428
1.00365
1.003
1.00233
1.00167
1.00103
1.00043
0.999899
0.999438
0.999069
0.9988
0.998631
0.998562
0.998585
0.998688
0.998851
0.999053
0.99928
0.999511
1.00651
1.00638
1.00616
1.00587
1.0055
1.00506
1.00458
1.00404
1.00348
1.0029
1.00232
1.00175
1.00121
1.00071
1.00025
0.999865
0.999547
0.999303
0.999136
0.999044
0.999028
0.999072
0.999172
0.999314
0.999487
1.00648
1.00636
1.00617
1.0059
1.00557
1.00518
1.00474
1.00425
1.00372
1.00318
1.00262
1.00207
1.00153
1.00102
1.00054
1.00012
0.999766
0.999478
0.999266
0.999131
0.999076
0.999092
0.999171
0.999301
0.999469
1.00116
1.00142
1.00243
1.00275
1.00233
1.00228
1.00233
1.00212
1.00178
1.00148
1.00127
1.00109
1.00083
1.00044
1.00002
0.999686
0.999472
0.999323
0.999195
0.999095
0.998978
0.999093
1.00049
1.00142
1.0005
1.0004
1.00199
1.00275
1.00257
1.00215
1.00227
1.00236
1.00216
1.00178
1.00145
1.00127
1.00111
1.00085
1.00047
1.00004
0.999695
0.999478
0.999351
0.999253
0.999177
0.999135
0.999358
1.00073
1.00232
1.00118
1.00168
1.00196
1.00215
1.00217
1.00213
1.00226
1.0023
1.00205
1.00169
1.00142
1.00126
1.0011
1.00085
1.00048
1.00007
0.999719
0.999491
0.999369
0.999288
0.999225
0.999208
0.999339
1.00009
1.00208
1.00111
1.00153
1.00191
1.00205
1.00211
1.00215
1.00225
1.00223
1.00196
1.00164
1.0014
1.00125
1.00109
1.00085
1.0005
1.00011
0.999752
0.999511
0.999385
0.99932
0.99927
0.999255
0.999285
0.999559
1.00121
1.00103
1.00148
1.00159
1.00174
1.00195
1.00214
1.00224
1.00213
1.00185
1.00157
1.00137
1.00122
1.00106
1.00084
1.00053
1.00015
0.999797
0.999541
0.999402
0.999343
0.999295
0.999233
0.999178
0.999166
0.999818
1.00072
1.00132
1.00151
1.00171
1.00197
1.00216
1.00216
1.00199
1.00173
1.0015
1.00134
1.00119
1.00103
1.00082
1.00055
1.0002
0.999852
0.999582
0.999424
0.999361
0.999305
0.99919
0.99913
0.99913
0.999299
0.999995
1.00123
1.00142
1.00166
1.00194
1.00211
1.00207
1.00186
1.00162
1.00144
1.0013
1.00115
1.00099
1.0008
1.00056
1.00025
0.999915
0.999635
0.999456
0.999383
0.999314
0.999175
0.999202
0.999989
0.9999
0.999887
1.00119
1.00139
1.00166
1.00193
1.00204
1.00193
1.00171
1.00151
1.00137
1.00125
1.00111
1.00095
1.00078
1.00057
1.0003
0.999982
0.9997
0.999503
0.999416
0.999338
0.999268
0.999633
1.00118
1.00136
1.00074
1.00115
1.00136
1.00163
1.00187
1.00193
1.00179
1.00157
1.00141
1.0013
1.0012
1.00107
1.00091
1.00075
1.00057
1.00033
1.00005
0.999773
0.999567
0.999464
0.999391
0.999404
1.00016
1.00155
1.00229
1.00187
1.00109
1.00133
1.0016
1.0018
1.00181
1.00163
1.00144
1.00131
1.00124
1.00115
1.00102
1.00087
1.00072
1.00057
1.00037
1.00011
0.99985
0.999643
0.999528
0.99947
0.999529
1.00049
1.00162
1.00236
1.00168
1.00104
1.00129
1.00156
1.00171
1.00167
1.00149
1.00131
1.00122
1.00117
1.0011
1.00097
1.00082
1.00069
1.00056
1.00039
1.00017
0.999928
0.999727
0.999605
0.999559
0.999647
1.00047
1.00165
1.00186
1.00069
1.00098
1.00125
1.0015
1.00161
1.00153
1.00134
1.0012
1.00114
1.00111
1.00105
1.00092
1.00078
1.00065
1.00054
1.0004
1.00021
1
0.999812
0.999686
0.999643
0.999717
1.00019
1.00148
1.00158
1.00038
1.00094
1.00121
1.00143
1.0015
1.00138
1.00121
1.00109
1.00105
1.00104
1.00099
1.00088
1.00074
1.00062
1.00051
1.0004
1.00025
1.00006
0.999891
0.999766
0.999717
0.999749
0.999902
1.00097
1.00166
1.00106
1.0009
1.00117
1.00136
1.00137
1.00125
1.00108
1.00099
1.00098
1.00098
1.00094
1.00083
1.0007
1.00058
1.00049
1.00039
1.00027
1.00011
0.999959
0.999839
0.999777
0.999777
0.999759
1.00026
1.00137
1.00178
1.00088
1.00113
1.00127
1.00125
1.00111
1.00097
1.0009
1.0009
1.00092
1.00088
1.00078
1.00066
1.00055
1.00046
1.00038
1.00028
1.00015
1.00001
0.999899
0.999822
0.999802
0.999721
0.99969
1.00034
1.00129
1.00085
1.00107
1.00117
1.00113
1.00099
1.00086
1.00081
1.00083
1.00085
1.00083
1.00074
1.00062
1.00051
1.00043
1.00036
1.00028
1.00017
1.00005
0.999943
0.999843
0.999786
0.999709
0.999448
0.999406
0.999998
1.00083
1.00101
1.00107
1.001
1.00087
1.00076
1.00073
1.00075
1.00079
1.00077
1.0007
1.00058
1.00048
1.0004
1.00034
1.00027
1.00018
1.00008
0.999972
0.999832
0.999711
0.999666
0.999483
0.999147
0.999229
1.00079
1.00094
1.00097
1.00089
1.00076
1.00066
1.00065
1.00069
1.00073
1.00072
1.00065
1.00055
1.00045
1.00037
1.00031
1.00025
1.00018
1.00009
0.999986
0.999799
0.999652
0.99966
0.999966
0.999584
0.999291
1.00075
1.00087
1.00087
1.00077
1.00066
1.00058
1.00057
1.00062
1.00067
1.00067
1.00061
1.00052
1.00043
1.00035
1.00029
1.00024
1.00017
1.0001
0.999993
0.999777
0.999686
1.00019
1.00114
1.00127
1.00062
1.00071
1.00079
1.00077
1.00067
1.00056
1.0005
1.0005
1.00056
1.00061
1.00062
1.00057
1.00049
1.0004
1.00033
1.00027
1.00022
1.00017
1.00011
0.999999
0.999789
0.999978
1.00108
1.00234
1.00288
1.0025
1.00065
1.00071
1.00067
1.00057
1.00047
1.00043
1.00044
1.00049
1.00055
1.00057
1.00053
1.00046
1.00038
1.00031
1.00025
1.00021
1.00016
1.00012
1.00002
0.999882
1.00046
1.00151
1.00262
1.00333
1.0031
1.0006
1.00063
1.00058
1.00048
1.0004
1.00036
1.00038
1.00043
1.00049
1.00052
1.00049
1.00043
1.00036
1.00029
1.00024
1.0002
1.00016
1.00013
1.00005
1.00001
1.00088
1.0017
1.00209
1.00291
1.0024
1.00054
1.00055
1.00049
1.0004
1.00032
1.0003
1.00032
1.00038
1.00044
1.00047
1.00045
1.0004
1.00034
1.00027
1.00022
1.00019
1.00016
1.00015
1.00009
1.00016
1.00107
1.00157
1.00132
1.00144
1.00073
1.00048
1.00047
1.00041
1.00032
1.00026
1.00024
1.00026
1.00032
1.00038
1.00042
1.00042
1.00038
1.00032
1.00026
1.00021
1.00018
1.00016
1.00016
1.00014
1.00024
1.00105
1.00132
1.00071
1.0001
0.999317
1.00042
1.0004
1.00033
1.00025
1.0002
1.00018
1.00021
1.00027
1.00033
1.00037
1.00038
1.00035
1.0003
1.00025
1.0002
1.00017
1.00016
1.00017
1.00016
1.00027
1.00092
1.00127
1.00057
0.999551
0.99877
1.00035
1.00032
1.00026
1.00019
1.00014
1.00013
1.00016
1.00022
1.00028
1.00032
1.00034
1.00032
1.00028
1.00023
1.0002
1.00017
1.00016
1.00017
1.00018
1.00026
1.0007
1.00131
1.00094
0.999937
0.999134
1.00029
1.00026
1.00019
1.00013
1.00008
1.00008
1.00011
1.00017
1.00023
1.00028
1.00029
1.00028
1.00026
1.00022
1.00019
1.00016
1.00015
1.00017
1.00018
1.00023
1.00046
1.00122
1.00144
1.00096
1.00053
1.00023
1.00019
1.00013
1.00007
1.00003
1.00003
1.00007
1.00012
1.00018
1.00023
1.00025
1.00025
1.00023
1.0002
1.00018
1.00016
1.00015
1.00016
1.00017
1.0002
1.00028
1.00086
1.00157
1.00187
1.00217
1.00018
1.00013
1.00007
1.00002
0.999987
0.999988
1.00002
1.00008
1.00014
1.00018
1.00021
1.00022
1.00021
1.00019
1.00016
1.00015
1.00014
1.00014
1.00015
1.00016
1.00015
1.00039
1.00117
1.00198
1.00284
1.00012
1.00007
1.00002
0.999968
0.999941
0.999946
0.999978
1.00003
1.00009
1.00014
1.00017
1.00018
1.00018
1.00017
1.00015
1.00013
1.00012
1.00012
1.00012
1.00012
1.00007
1.00001
1.00044
1.00131
1.00223
1.00007
1.00002
0.999966
0.999921
0.999898
0.999904
0.999936
0.999986
1.00004
1.00009
1.00013
1.00015
1.00015
1.00014
1.00013
1.00012
1.00011
1.0001
1.00009
1.00007
1.00002
0.999824
0.999796
1.00023
1.00092
1.00002
0.999968
0.999917
0.999876
0.999857
0.999864
0.999895
0.999943
0.999998
1.00005
1.00009
1.00011
1.00012
1.00012
1.00011
1.0001
1.00008
1.00007
1.00005
1.00002
0.999955
0.999745
0.999431
0.999326
0.999568
0.999966
0.999919
0.999871
0.999833
0.999817
0.999825
0.999855
0.9999
0.999953
1
1.00005
1.00007
1.00009
1.00009
1.00009
1.00007
1.00006
1.00004
1
0.999956
0.999861
0.99965
0.999248
0.998808
0.998637
0.999918
0.999872
0.999826
0.999792
0.999778
0.999786
0.999815
0.999859
0.99991
0.999961
1
1.00004
1.00005
1.00006
1.00006
1.00005
1.00003
0.999996
0.999946
0.999868
0.999722
0.999474
0.999062
0.998536
0.998221
0.999872
0.999827
0.999784
0.999753
0.99974
0.999748
0.999776
0.999818
0.999867
0.999917
0.999962
0.999997
1.00002
1.00003
1.00003
1.00002
0.999993
0.999952
0.999871
0.999741
0.999532
0.999251
0.998861
0.998431
0.998146
0.999828
0.999783
0.999743
0.999714
0.999703
0.999711
0.999737
0.999777
0.999825
0.999875
0.99992
0.999958
0.999984
0.999999
1
0.99999
0.999957
0.999904
0.999771
0.999575
0.99934
0.999127
0.998882
0.998624
0.998512
0.999785
0.999742
0.999703
0.999677
0.999666
0.999673
0.999698
0.999737
0.999783
0.999832
0.999879
0.999919
0.999949
0.999968
0.999974
0.999961
0.999924
0.999849
0.999646
0.999412
0.999252
0.999323
0.999537
0.999605
0.999684
0.999744
0.999701
0.999664
0.999639
0.999629
0.999636
0.99966
0.999696
0.999741
0.99979
0.999837
0.99988
0.999914
0.999938
0.999947
0.999935
0.999897
0.99979
0.999532
0.999353
0.999612
1.00043
1.00115
1.00151
1.00163
0.999703
0.999661
0.999626
0.999602
0.999592
0.999599
0.999621
0.999655
0.999699
0.999748
0.999796
0.999842
0.99988
0.99991
0.999923
0.999916
0.99988
0.999738
0.99949
0.999618
1.00081
1.00209
1.003
1.00338
1.00337
0.999664
0.999622
0.999587
0.999564
0.999554
0.99956
0.999581
0.999614
0.999657
0.999705
0.999755
0.999805
0.999847
0.999883
0.999904
0.999906
0.999872
0.999702
0.999559
1.00035
1.00206
1.00342
1.00397
1.00407
1.00395
0.999624
0.999582
0.999548
0.999525
0.999516
0.999521
0.999541
0.999572
0.999614
0.999663
0.999714
0.999767
0.999816
0.99986
0.999888
0.999906
0.999874
0.999694
0.999811
1.00114
1.00305
1.00391
1.00404