/*--------------------------------*- C++ -*----------------------------------*\
| =========                 |                                                 |
| \\      /  F ield         | OpenFOAM: The Open Source CFD Toolbox           |
|  \\    /   O peration     | Version:  v1912                                 |
|   \\  /    A nd           | Website:  www.openfoam.com                      |
|    \\/     M anipulation  |                                                 |
\*---------------------------------------------------------------------------*/
FoamFile
{
    version     2.0;
    format      ascii;
    class       volScalarField;
    location    "1000";
    object      TMean;
}
// * * * * * * * * * * * * * * * * * * * * * * * * * * * * * * * * * * * * * //

dimensions      [0 0 0 1 0 0 0];


internalField   nonuniform List<scalar> 
9900
(
1.00044
1.00056
1.00046
1.00054
1.00049
1.00051
1.0005
1.00048
1.00047
1.00044
1.00041
1.00037
1.00034
1.00029
1.00024
1.00019
1.00014
1.0001
1.00005
1.00001
0.999963
0.999906
0.999861
0.999779
0.999703
1.0003
1.00029
1.00029
1.00027
1.00027
1.00024
1.00024
1.00022
1.0002
1.00018
1.00016
1.00014
1.00012
1.00009
1.00007
1.00003
0.999995
0.999962
0.999931
0.999902
0.999879
0.999858
0.999848
0.999851
0.999844
1.00006
0.999983
1.00006
0.999992
1.00003
1.00001
1.00001
1
0.999989
0.999992
0.999981
0.99998
0.999978
0.999979
0.999981
0.999982
0.999977
0.999967
0.999954
0.999941
0.999933
0.999926
0.999916
0.999901
0.999854
1.00004
1.00002
1.00005
1.00003
1.00004
1.00004
1.00003
1.00004
1.00003
1.00003
1.00003
1.00003
1.00003
1.00003
1.00003
1.00003
1.00002
1.00001
1
0.999984
0.999965
0.999942
0.999914
0.999886
0.999875
1.0001
1.00009
1.0001
1.0001
1.00009
1.0001
1.00009
1.00009
1.00008
1.00008
1.00007
1.00007
1.00006
1.00005
1.00005
1.00004
1.00003
1.00002
1.00001
0.99999
0.99997
0.999947
0.999928
0.999916
0.999906
1.00013
1.00011
1.00012
1.00011
1.00011
1.00011
1.0001
1.00009
1.00009
1.00008
1.00008
1.00007
1.00006
1.00005
1.00004
1.00003
1.00002
1.00001
1
0.999987
0.999972
0.999957
0.999943
0.99993
0.999918
1.00013
1.00011
1.00012
1.00011
1.00011
1.0001
1.0001
1.00009
1.00008
1.00008
1.00007
1.00006
1.00005
1.00004
1.00003
1.00002
1.00001
1.00001
0.999995
0.999985
0.999974
0.999962
0.99995
0.999938
0.999927
1.00012
1.00011
1.00012
1.00011
1.00011
1.0001
1.0001
1.00009
1.00009
1.00008
1.00007
1.00006
1.00005
1.00004
1.00003
1.00002
1.00001
1
0.999992
0.999982
0.999972
0.999961
0.99995
0.999939
0.99993
1.00013
1.00012
1.00012
1.00012
1.00011
1.00011
1.0001
1.0001
1.00009
1.00008
1.00007
1.00007
1.00006
1.00005
1.00003
1.00002
1.00001
1
0.99999
0.999979
0.999968
0.999958
0.999947
0.999937
0.999927
1.00014
1.00013
1.00013
1.00013
1.00012
1.00011
1.00011
1.0001
1.0001
1.00009
1.00008
1.00007
1.00006
1.00005
1.00003
1.00002
1.00001
0.999999
0.999988
0.999977
0.999965
0.999954
0.999944
0.999933
0.999923
1.00014
1.00014
1.00013
1.00013
1.00013
1.00012
1.00011
1.00011
1.0001
1.00009
1.00008
1.00007
1.00006
1.00005
1.00004
1.00002
1.00001
0.999999
0.999987
0.999975
0.999963
0.999951
0.99994
0.999929
0.999919
1.00015
1.00014
1.00014
1.00014
1.00013
1.00013
1.00012
1.00011
1.0001
1.00009
1.00008
1.00007
1.00006
1.00005
1.00004
1.00002
1.00001
0.999999
0.999986
0.999973
0.999961
0.999948
0.999936
0.999925
0.999915
1.00016
1.00015
1.00015
1.00014
1.00014
1.00013
1.00012
1.00012
1.00011
1.0001
1.00009
1.00008
1.00006
1.00005
1.00004
1.00003
1.00001
0.999999
0.999986
0.999972
0.999958
0.999945
0.999933
0.999921
0.99991
1.00016
1.00016
1.00015
1.00015
1.00015
1.00014
1.00013
1.00012
1.00011
1.0001
1.00009
1.00008
1.00007
1.00005
1.00004
1.00003
1.00001
1
0.999985
0.999971
0.999956
0.999943
0.999929
0.999918
0.999906
1.00017
1.00017
1.00016
1.00016
1.00015
1.00014
1.00014
1.00013
1.00012
1.00011
1.0001
1.00008
1.00007
1.00006
1.00004
1.00003
1.00001
1
0.999984
0.999969
0.999954
0.99994
0.999927
0.999914
0.999902
1.00018
1.00017
1.00017
1.00017
1.00016
1.00015
1.00014
1.00013
1.00012
1.00011
1.0001
1.00009
1.00008
1.00006
1.00005
1.00003
1.00002
1
0.999984
0.999968
0.999953
0.999938
0.999924
0.999911
0.999898
1.00019
1.00018
1.00018
1.00017
1.00017
1.00016
1.00015
1.00014
1.00013
1.00012
1.00011
1.00009
1.00008
1.00006
1.00005
1.00003
1.00002
1
0.999983
0.999967
0.999951
0.999935
0.999921
0.999907
0.999894
1.0002
1.00019
1.00019
1.00018
1.00018
1.00017
1.00016
1.00015
1.00014
1.00013
1.00011
1.0001
1.00008
1.00007
1.00005
1.00003
1.00002
1
0.999982
0.999965
0.999949
0.999933
0.999918
0.999903
0.999889
1.0002
1.0002
1.0002
1.00019
1.00019
1.00018
1.00017
1.00016
1.00014
1.00013
1.00012
1.0001
1.00009
1.00007
1.00005
1.00004
1.00002
1
0.999982
0.999964
0.999947
0.99993
0.999914
0.999899
0.999885
1.00021
1.00021
1.00021
1.0002
1.00019
1.00019
1.00018
1.00016
1.00015
1.00014
1.00012
1.00011
1.00009
1.00007
1.00006
1.00004
1.00002
1
0.999982
0.999963
0.999945
0.999928
0.999911
0.999895
0.999879
1.00022
1.00022
1.00022
1.00021
1.0002
1.0002
1.00018
1.00017
1.00016
1.00015
1.00013
1.00011
1.0001
1.00008
1.00006
1.00004
1.00002
1
0.999981
0.999962
0.999943
0.999924
0.999907
0.99989
0.999874
1.00024
1.00023
1.00023
1.00022
1.00021
1.00021
1.00019
1.00018
1.00017
1.00015
1.00014
1.00012
1.0001
1.00008
1.00006
1.00004
1.00002
1
0.999981
0.99996
0.999941
0.999921
0.999903
0.999885
0.999868
1.00025
1.00024
1.00024
1.00023
1.00022
1.00022
1.0002
1.00019
1.00018
1.00016
1.00014
1.00013
1.00011
1.00009
1.00007
1.00005
1.00002
1
0.99998
0.999959
0.999938
0.999918
0.999898
0.999879
0.999861
1.00026
1.00026
1.00025
1.00024
1.00023
1.00023
1.00021
1.0002
1.00018
1.00017
1.00015
1.00013
1.00011
1.00009
1.00007
1.00005
1.00003
1
0.99998
0.999957
0.999935
0.999914
0.999893
0.999873
0.999855
1.00027
1.00027
1.00026
1.00025
1.00025
1.00024
1.00022
1.00021
1.00019
1.00018
1.00016
1.00014
1.00012
1.0001
1.00007
1.00005
1.00003
1
0.999979
0.999956
0.999933
0.99991
0.999888
0.999867
0.999848
1.00028
1.00028
1.00027
1.00027
1.00026
1.00025
1.00024
1.00022
1.0002
1.00019
1.00017
1.00015
1.00012
1.0001
1.00008
1.00005
1.00003
1
0.999979
0.999954
0.999929
0.999906
0.999883
0.999861
0.99984
1.0003
1.00029
1.00029
1.00028
1.00027
1.00026
1.00025
1.00023
1.00021
1.0002
1.00017
1.00015
1.00013
1.00011
1.00008
1.00006
1.00003
1
0.999978
0.999952
0.999926
0.999901
0.999877
0.999854
0.999832
1.00031
1.00031
1.0003
1.00029
1.00028
1.00027
1.00026
1.00024
1.00023
1.00021
1.00018
1.00016
1.00014
1.00011
1.00009
1.00006
1.00003
1
0.999977
0.999949
0.999922
0.999896
0.999871
0.999846
0.999824
1.00033
1.00032
1.00032
1.00031
1.0003
1.00029
1.00027
1.00026
1.00024
1.00022
1.00019
1.00017
1.00014
1.00012
1.00009
1.00006
1.00003
1
0.999976
0.999947
0.999918
0.999891
0.999864
0.999839
0.999815
1.00034
1.00034
1.00033
1.00032
1.00031
1.0003
1.00029
1.00027
1.00025
1.00023
1.0002
1.00018
1.00015
1.00012
1.00009
1.00007
1.00004
1
0.999974
0.999944
0.999914
0.999885
0.999857
0.99983
0.999805
1.00036
1.00036
1.00035
1.00034
1.00033
1.00032
1.0003
1.00028
1.00026
1.00024
1.00021
1.00019
1.00016
1.00013
1.0001
1.00007
1.00004
1.00001
0.999973
0.999941
0.999909
0.999879
0.999849
0.999821
0.999795
1.00038
1.00037
1.00037
1.00036
1.00035
1.00033
1.00031
1.0003
1.00027
1.00025
1.00022
1.0002
1.00017
1.00014
1.0001
1.00007
1.00004
1
0.999971
0.999938
0.999904
0.999872
0.999841
0.999812
0.999784
1.0004
1.00039
1.00039
1.00038
1.00036
1.00035
1.00033
1.00031
1.00029
1.00026
1.00024
1.00021
1.00018
1.00014
1.00011
1.00008
1.00004
1
0.999969
0.999934
0.999899
0.999865
0.999833
0.999802
0.999773
1.00041
1.00041
1.00041
1.00039
1.00038
1.00036
1.00035
1.00033
1.0003
1.00028
1.00025
1.00022
1.00018
1.00015
1.00012
1.00008
1.00004
1
0.999967
0.99993
0.999893
0.999858
0.999823
0.999791
0.99976
1.00044
1.00043
1.00043
1.00041
1.0004
1.00038
1.00036
1.00034
1.00032
1.00029
1.00026
1.00023
1.00019
1.00016
1.00012
1.00008
1.00004
1
0.999965
0.999926
0.999887
0.99985
0.999814
0.999779
0.999747
1.00046
1.00045
1.00045
1.00043
1.00042
1.0004
1.00038
1.00036
1.00033
1.0003
1.00027
1.00024
1.0002
1.00017
1.00013
1.00009
1.00005
1
0.999963
0.999922
0.999881
0.999841
0.999803
0.999767
0.999733
1.00048
1.00048
1.00047
1.00046
1.00044
1.00042
1.0004
1.00038
1.00035
1.00032
1.00029
1.00025
1.00021
1.00017
1.00013
1.00009
1.00005
1
0.99996
0.999917
0.999874
0.999832
0.999792
0.999754
0.999719
1.0005
1.0005
1.00049
1.00048
1.00046
1.00044
1.00042
1.0004
1.00037
1.00034
1.0003
1.00026
1.00022
1.00018
1.00014
1.00009
1.00005
1
0.999958
0.999912
0.999867
0.999823
0.999781
0.999741
0.999703
1.00053
1.00053
1.00052
1.0005
1.00049
1.00047
1.00044
1.00042
1.00039
1.00035
1.00032
1.00028
1.00024
1.00019
1.00015
1.0001
1.00005
1
0.999955
0.999907
0.999859
0.999813
0.999769
0.999726
0.999687
1.00055
1.00055
1.00054
1.00053
1.00051
1.00049
1.00046
1.00044
1.0004
1.00037
1.00033
1.00029
1.00025
1.0002
1.00015
1.0001
1.00005
1
0.999952
0.999901
0.999851
0.999803
0.999756
0.999711
0.999669
1.00058
1.00058
1.00057
1.00056
1.00054
1.00051
1.00049
1.00046
1.00042
1.00039
1.00035
1.0003
1.00026
1.00021
1.00016
1.00011
1.00006
1
0.999948
0.999895
0.999842
0.999791
0.999742
0.999695
0.999651
1.00061
1.00061
1.0006
1.00058
1.00056
1.00054
1.00051
1.00048
1.00045
1.00041
1.00036
1.00032
1.00027
1.00022
1.00017
1.00011
1.00006
1
0.999945
0.999889
0.999833
0.999779
0.999727
0.999678
0.999631
1.00064
1.00064
1.00063
1.00061
1.00059
1.00057
1.00054
1.0005
1.00047
1.00043
1.00038
1.00033
1.00028
1.00023
1.00017
1.00012
1.00006
1
0.999941
0.999882
0.999824
0.999767
0.999712
0.99966
0.99961
1.00067
1.00067
1.00066
1.00064
1.00062
1.0006
1.00057
1.00053
1.00049
1.00045
1.0004
1.00035
1.0003
1.00024
1.00018
1.00012
1.00006
0.999999
0.999937
0.999874
0.999813
0.999754
0.999696
0.999641
0.999588
1.00071
1.0007
1.00069
1.00068
1.00065
1.00063
1.00059
1.00056
1.00052
1.00047
1.00042
1.00037
1.00031
1.00025
1.00019
1.00013
1.00006
0.999998
0.999932
0.999867
0.999802
0.999739
0.999679
0.99962
0.999565
1.00074
1.00074
1.00073
1.00071
1.00069
1.00066
1.00062
1.00058
1.00054
1.00049
1.00044
1.00038
1.00033
1.00026
1.0002
1.00013
1.00006
0.999996
0.999927
0.999858
0.999791
0.999724
0.99966
0.999599
0.999541
1.00078
1.00078
1.00076
1.00075
1.00072
1.00069
1.00065
1.00061
1.00057
1.00052
1.00046
1.0004
1.00034
1.00028
1.00021
1.00014
1.00007
0.999994
0.999922
0.999849
0.999778
0.999708
0.999641
0.999576
0.999515
1.00082
1.00082
1.0008
1.00078
1.00076
1.00073
1.00069
1.00064
1.0006
1.00054
1.00048
1.00042
1.00036
1.00029
1.00022
1.00014
1.00007
0.999992
0.999916
0.99984
0.999765
0.999691
0.99962
0.999552
0.999487
1.00086
1.00086
1.00084
1.00082
1.0008
1.00076
1.00072
1.00068
1.00063
1.00057
1.00051
1.00044
1.00037
1.0003
1.00023
1.00015
1.00007
0.99999
0.999909
0.999829
0.999751
0.999673
0.999599
0.999527
0.999459
1.00091
1.0009
1.00089
1.00086
1.00084
1.0008
1.00076
1.00071
1.00066
1.0006
1.00053
1.00046
1.00039
1.00032
1.00024
1.00015
1.00007
0.999987
0.999903
0.999818
0.999735
0.999654
0.999575
0.9995
0.999428
1.00095
1.00095
1.00093
1.00091
1.00088
1.00084
1.0008
1.00075
1.00069
1.00063
1.00056
1.00049
1.00041
1.00033
1.00025
1.00016
1.00007
0.999984
0.999895
0.999807
0.999719
0.999634
0.999551
0.999471
0.999396
1.001
1.00099
1.00098
1.00095
1.00092
1.00088
1.00084
1.00078
1.00072
1.00066
1.00059
1.00051
1.00043
1.00034
1.00026
1.00017
1.00007
0.999981
0.999887
0.999794
0.999702
0.999612
0.999525
0.999441
0.999361
1.00105
1.00104
1.00103
1.001
1.00097
1.00093
1.00088
1.00082
1.00076
1.00069
1.00061
1.00053
1.00045
1.00036
1.00027
1.00017
1.00007
0.999977
0.999878
0.999781
0.999684
0.99959
0.999498
0.99941
0.999325
1.00111
1.0011
1.00108
1.00105
1.00102
1.00097
1.00092
1.00086
1.0008
1.00072
1.00064
1.00056
1.00047
1.00038
1.00028
1.00018
1.00008
0.999973
0.999869
0.999766
0.999665
0.999565
0.999469
0.999376
0.999287
1.00116
1.00115
1.00113
1.00111
1.00107
1.00102
1.00097
1.00091
1.00084
1.00076
1.00067
1.00059
1.00049
1.00039
1.00029
1.00018
1.00008
0.999968
0.999859
0.999751
0.999644
0.99954
0.999438
0.999341
0.999247
1.00122
1.00121
1.00119
1.00116
1.00112
1.00108
1.00102
1.00095
1.00088
1.0008
1.00071
1.00061
1.00051
1.00041
1.0003
1.00019
1.00008
0.999962
0.999848
0.999734
0.999622
0.999512
0.999406
0.999303
0.999205
1.00128
1.00127
1.00125
1.00122
1.00118
1.00113
1.00107
1.001
1.00092
1.00083
1.00074
1.00064
1.00054
1.00043
1.00031
1.0002
1.00008
0.999956
0.999836
0.999717
0.999599
0.999483
0.999371
0.999264
0.99916
1.00135
1.00134
1.00132
1.00128
1.00124
1.00119
1.00112
1.00105
1.00097
1.00087
1.00078
1.00067
1.00056
1.00044
1.00032
1.0002
1.00008
0.99995
0.999823
0.999698
0.999574
0.999453
0.999335
0.999222
0.999113
1.00142
1.00141
1.00138
1.00135
1.0013
1.00125
1.00118
1.0011
1.00101
1.00092
1.00081
1.0007
1.00059
1.00046
1.00034
1.00021
1.00008
0.999942
0.999809
0.999677
0.999547
0.99942
0.999297
0.999178
0.999064
1.00149
1.00148
1.00145
1.00142
1.00137
1.00131
1.00124
1.00115
1.00106
1.00096
1.00085
1.00073
1.00061
1.00048
1.00035
1.00021
1.00007
0.999934
0.999794
0.999655
0.999519
0.999385
0.999256
0.999131
0.999011
1.00157
1.00156
1.00153
1.00149
1.00144
1.00137
1.0013
1.00121
1.00111
1.00101
1.00089
1.00077
1.00064
1.0005
1.00036
1.00022
1.00007
0.999924
0.999777
0.999632
0.999488
0.999348
0.999212
0.999081
0.998956
1.00165
1.00163
1.00161
1.00157
1.00151
1.00144
1.00136
1.00127
1.00117
1.00106
1.00093
1.0008
1.00066
1.00052
1.00037
1.00022
1.00007
0.999914
0.999759
0.999606
0.999456
0.999309
0.999166
0.999029
0.998898
1.00173
1.00172
1.00169
1.00165
1.00159
1.00152
1.00143
1.00133
1.00122
1.00111
1.00098
1.00084
1.00069
1.00054
1.00039
1.00023
1.00006
0.999902
0.999739
0.999579
0.999421
0.999267
0.999117
0.998973
0.998836
1.00182
1.00181
1.00178
1.00173
1.00167
1.00159
1.0015
1.0014
1.00128
1.00116
1.00102
1.00087
1.00072
1.00056
1.0004
1.00023
1.00006
0.999888
0.999717
0.999549
0.999383
0.999222
0.999065
0.998915
0.998771
1.00192
1.0019
1.00187
1.00182
1.00175
1.00167
1.00158
1.00147
1.00135
1.00121
1.00107
1.00091
1.00075
1.00058
1.00041
1.00023
1.00005
0.999873
0.999693
0.999516
0.999343
0.999174
0.99901
0.998852
0.998702
1.00201
1.002
1.00196
1.00191
1.00184
1.00176
1.00165
1.00154
1.00141
1.00127
1.00111
1.00095
1.00078
1.0006
1.00042
1.00023
1.00004
0.999855
0.999667
0.999481
0.999299
0.999122
0.998951
0.998786
0.998629
1.00212
1.0021
1.00206
1.00201
1.00193
1.00184
1.00174
1.00161
1.00148
1.00133
1.00116
1.00099
1.00081
1.00062
1.00043
1.00023
1.00003
0.999836
0.999638
0.999443
0.999252
0.999067
0.998888
0.998715
0.998551
1.00223
1.00221
1.00217
1.00211
1.00203
1.00193
1.00182
1.00169
1.00155
1.00139
1.00121
1.00103
1.00084
1.00064
1.00044
1.00023
1.00002
0.999813
0.999606
0.999401
0.999201
0.999007
0.99882
0.99864
0.998469
1.00234
1.00232
1.00228
1.00222
1.00213
1.00203
1.00191
1.00177
1.00162
1.00145
1.00127
1.00107
1.00087
1.00066
1.00045
1.00023
1.00001
0.999788
0.99957
0.999356
0.999146
0.998943
0.998748
0.998561
0.998382
1.00246
1.00244
1.00239
1.00233
1.00224
1.00213
1.002
1.00186
1.00169
1.00151
1.00132
1.00112
1.0009
1.00068
1.00045
1.00022
0.999991
0.99976
0.999531
0.999306
0.999087
0.998875
0.998671
0.998475
0.998289
1.00259
1.00256
1.00252
1.00245
1.00235
1.00224
1.0021
1.00194
1.00177
1.00158
1.00138
1.00116
1.00093
1.0007
1.00046
1.00022
0.999971
0.999728
0.999487
0.999251
0.999022
0.9988
0.998588
0.998384
0.998191
1.00272
1.0027
1.00265
1.00257
1.00247
1.00235
1.0022
1.00204
1.00185
1.00165
1.00143
1.0012
1.00096
1.00072
1.00046
1.00021
0.999947
0.999691
0.999439
0.999192
0.998952
0.99872
0.998498
0.998287
0.998086
1.00286
1.00283
1.00278
1.0027
1.00259
1.00246
1.00231
1.00213
1.00193
1.00172
1.00149
1.00125
1.00099
1.00073
1.00046
1.00019
0.999919
0.99965
0.999385
0.999126
0.998875
0.998633
0.998402
0.998182
0.997975
1.00301
1.00298
1.00292
1.00283
1.00272
1.00258
1.00242
1.00223
1.00202
1.00179
1.00155
1.00129
1.00102
1.00074
1.00046
1.00017
0.999887
0.999603
0.999325
0.999053
0.998791
0.998539
0.998299
0.998071
0.997855
1.00316
1.00313
1.00307
1.00298
1.00285
1.00271
1.00253
1.00233
1.00211
1.00187
1.00161
1.00133
1.00105
1.00075
1.00045
1.00015
0.999848
0.99955
0.999258
0.998973
0.998699
0.998437
0.998187
0.99795
0.997728
1.00332
1.00329
1.00322
1.00312
1.00299
1.00284
1.00265
1.00243
1.0022
1.00194
1.00166
1.00137
1.00107
1.00076
1.00044
1.00012
0.999804
0.99949
0.999183
0.998885
0.998599
0.998325
0.998066
0.997821
0.997591
1.00349
1.00345
1.00338
1.00328
1.00314
1.00297
1.00277
1.00254
1.00229
1.00202
1.00172
1.00141
1.00109
1.00076
1.00042
1.00009
0.999752
0.999421
0.999099
0.998787
0.998488
0.998204
0.997934
0.997681
0.997444
1.00367
1.00363
1.00355
1.00344
1.00329
1.00311
1.0029
1.00265
1.00238
1.00209
1.00178
1.00145
1.00111
1.00076
1.0004
1.00005
0.999691
0.999344
0.999005
0.998679
0.998367
0.998071
0.997792
0.997531
0.997287
1.00385
1.00381
1.00373
1.00361
1.00345
1.00326
1.00303
1.00277
1.00248
1.00217
1.00183
1.00148
1.00112
1.00075
1.00037
0.999995
0.999621
0.999255
0.9989
0.998559
0.998233
0.997926
0.997637
0.997367
0.997117
1.00404
1.004
1.00391
1.00378
1.00361
1.00341
1.00316
1.00288
1.00258
1.00224
1.00189
1.00151
1.00113
1.00073
1.00033
0.999934
0.99954
0.999155
0.998782
0.998425
0.998086
0.997766
0.997468
0.99719
0.996934
1.00424
1.0042
1.0041
1.00396
1.00378
1.00356
1.0033
1.003
1.00267
1.00232
1.00194
1.00154
1.00113
1.00071
1.00028
0.999862
0.999446
0.999041
0.998649
0.998276
0.997922
0.997591
0.997283
0.996998
0.996736
1.00445
1.0044
1.0043
1.00415
1.00396
1.00372
1.00344
1.00312
1.00277
1.00239
1.00198
1.00156
1.00112
1.00067
1.00022
0.999777
0.999337
0.99891
0.9985
0.998109
0.997741
0.997398
0.99708
0.996788
0.996521
1.00467
1.00461
1.00451
1.00435
1.00414
1.00388
1.00358
1.00324
1.00286
1.00245
1.00202
1.00157
1.0011
1.00063
1.00015
0.999676
0.999212
0.998762
0.998331
0.997922
0.99754
0.997184
0.996857
0.996559
0.996288
1.00489
1.00483
1.00472
1.00454
1.00432
1.00404
1.00372
1.00336
1.00295
1.00252
1.00205
1.00157
1.00107
1.00057
1.00006
0.999556
0.999066
0.998592
0.99814
0.997713
0.997315
0.996947
0.996612
0.996308
0.996035
1.00512
1.00506
1.00493
1.00475
1.00451
1.00421
1.00386
1.00347
1.00304
1.00257
1.00207
1.00156
1.00103
1.00049
0.999947
0.999415
0.998896
0.998397
0.997923
0.997477
0.997064
0.996685
0.996342
0.996035
0.995764
1.00535
1.00528
1.00515
1.00495
1.00469
1.00437
1.004
1.00358
1.00311
1.00261
1.00208
1.00153
1.00096
1.00039
0.999813
0.999248
0.9987
0.998174
0.997676
0.997212
0.996784
0.996395
0.996047
0.995742
0.995481
1.00559
1.00552
1.00537
1.00516
1.00488
1.00454
1.00413
1.00368
1.00318
1.00264
1.00207
1.00148
1.00087
1.00026
0.999651
0.999052
0.998472
0.997918
0.997397
0.996913
0.996472
0.996077
0.995731
0.995438
0.995204
1.00583
1.00575
1.00559
1.00536
1.00506
1.00469
1.00426
1.00377
1.00323
1.00266
1.00204
1.00141
1.00076
1.00011
0.999456
0.99882
0.998207
0.997625
0.997081
0.996582
0.996133
0.99574
0.995409
0.995148
0.994974
1.00606
1.00598
1.00581
1.00556
1.00524
1.00484
1.00437
1.00385
1.00327
1.00265
1.00199
1.00131
1.00061
0.999915
0.999224
0.99855
0.997905
0.997296
0.996734
0.996226
0.995781
0.995409
0.995118
0.994925
0.994862
1.00629
1.0062
1.00602
1.00575
1.0054
1.00497
1.00447
1.0039
1.00328
1.00261
1.0019
1.00117
1.00043
0.999685
0.998952
0.998243
0.997569
0.996942
0.996373
0.995874
0.995457
0.995136
0.994924
0.994855
0.994946
1.00651
1.00641
1.00621
1.00592
1.00554
1.00508
1.00453
1.00392
1.00325
1.00254
1.00178
1.001
1.00021
0.999422
0.998653
0.997916
0.997227
0.996599
0.996047
0.995587
0.995237
0.995007
0.994934
0.995038
0.995327
1.0067
1.00659
1.00638
1.00607
1.00566
1.00515
1.00457
1.00392
1.0032
1.00243
1.00163
1.0008
0.999974
0.999154
0.998364
0.99762
0.996941
0.996343
0.995847
0.995471
0.995232
0.995157
0.995268
0.995571
0.99607
1.00685
1.00673
1.0065
1.00617
1.00573
1.0052
1.00458
1.00388
1.00312
1.00232
1.00148
1.00063
0.999775
0.998948
0.998168
0.997453
0.996824
0.996302
0.995907
0.995664
0.99559
0.995694
0.995992
0.996473
0.997105
1.00694
1.00682
1.00658
1.00623
1.00577
1.00521
1.00457
1.00385
1.00307
1.00225
1.0014
1.00055
0.999716
0.998925
0.998199
0.997557
0.997021
0.996616
0.996363
0.996274
0.996363
0.996625
0.997045
0.997596
0.99823
1.00696
1.00684
1.0066
1.00624
1.00578
1.00523
1.00459
1.00388
1.00311
1.00231
1.0015
1.0007
0.99993
0.999223
0.998585
0.998049
0.997634
0.997359
0.997236
0.99727
0.997452
0.997768
0.998187
0.998669
0.999166
1.00692
1.00681
1.00658
1.00624
1.00581
1.00529
1.00469
1.00403
1.00332
1.0026
1.00186
1.00115
1.00049
0.999879
0.999343
0.998911
0.998598
0.998408
0.998343
0.998397
0.998556
0.998797
0.999091
0.999405
0.999708
1.00685
1.00675
1.00655
1.00626
1.00587
1.00541
1.00489
1.00431
1.0037
1.00308
1.00245
1.00183
1.00126
1.00074
1.00028
0.999899
0.999611
0.999413
0.999303
0.999277
0.99932
0.999419
0.999554
0.999708
0.999868
1.00679
1.0067
1.00654
1.00629
1.00596
1.00557
1.00513
1.00463
1.00411
1.00356
1.00301
1.00246
1.00194
1.00144
1.001
1.0006
1.00027
1.00001
0.999813
0.999686
0.999624
0.999618
0.99966
0.99974
0.999849
1.00676
1.00668
1.00653
1.0063
1.00601
1.00566
1.00525
1.0048
1.00431
1.0038
1.00327
1.00274
1.00222
1.00172
1.00125
1.00084
1.00047
1.00017
0.999932
0.999766
0.999669
0.999635
0.999657
0.999726
0.999829
0.999702
0.99976
0.999802
0.999821
0.999833
0.999845
0.999855
0.999862
0.999869
0.999875
0.999879
0.99988
0.999876
0.99987
0.999865
0.999861
0.999859
0.999855
0.999852
0.999852
0.999814
0.999867
1.0005
1.0013
1.00087
0.999842
0.999846
0.999854
0.999862
0.999864
0.999869
0.999873
0.999877
0.99988
0.999883
0.999884
0.999882
0.999875
0.999868
0.999864
0.999862
0.99986
0.999857
0.999855
0.999853
0.999815
0.999895
1.00058
1.00131
1.00087
0.999827
0.999835
0.999861
0.999878
0.999885
0.999886
0.999886
0.999885
0.999887
0.999888
0.999886
0.99988
0.999873
0.999867
0.999864
0.999862
0.999861
0.999858
0.999857
0.999854
0.999819
0.999918
1.00061
1.00133
1.0009
0.999876
0.999883
0.999889
0.999891
0.99989
0.999887
0.999887
0.999888
0.999888
0.999887
0.999883
0.999877
0.999871
0.999867
0.999864
0.999863
0.999862
0.999859
0.99986
0.999855
0.999824
0.999943
1.00066
1.00134
1.0009
0.999893
0.999889
0.999893
0.999898
0.999899
0.999897
0.999894
0.999891
0.999889
0.999885
0.99988
0.999875
0.99987
0.999866
0.999864
0.999864
0.999864
0.999861
0.999863
0.999857
0.99983
0.99997
1.00069
1.00133
1.0009
0.99991
0.999907
0.999907
0.999906
0.999902
0.999896
0.999892
0.999889
0.999886
0.999881
0.999877
0.999872
0.999869
0.999866
0.999865
0.999864
0.999865
0.999863
0.999867
0.999859
0.999835
0.999998
1.00072
1.00131
1.00091
0.999919
0.999914
0.99991
0.999907
0.999902
0.999896
0.99989
0.999886
0.999882
0.999878
0.999873
0.99987
0.999868
0.999866
0.999865
0.999865
0.999866
0.999865
0.99987
0.999861
0.999839
1.00003
1.00075
1.00129
1.00092
0.999921
0.999915
0.99991
0.999904
0.999898
0.999891
0.999885
0.999881
0.999877
0.999874
0.99987
0.999868
0.999867
0.999866
0.999866
0.999866
0.999868
0.999868
0.999874
0.999863
0.999848
1.00006
1.00077
1.00128
1.00093
0.999919
0.999912
0.999905
0.999899
0.999892
0.999885
0.99988
0.999876
0.999873
0.99987
0.999868
0.999866
0.999866
0.999866
0.999866
0.999867
0.99987
0.99987
0.999878
0.999865
0.999859
1.0001
1.0008
1.00127
1.00094
0.999915
0.999907
0.9999
0.999893
0.999885
0.999879
0.999875
0.999871
0.999869
0.999866
0.999865
0.999864
0.999864
0.999865
0.999866
0.999869
0.999871
0.999873
0.999882
0.999867
0.999871
1.00014
1.00083
1.00126
1.00096
0.99991
0.999902
0.999894
0.999886
0.999879
0.999873
0.99987
0.999867
0.999865
0.999863
0.999862
0.999862
0.999863
0.999865
0.999867
0.99987
0.999873
0.999876
0.999886
0.99987
0.999885
1.00019
1.00085
1.00126
1.00097
0.999905
0.999896
0.999888
0.99988
0.999873
0.999868
0.999865
0.999862
0.99986
0.999859
0.999859
0.99986
0.999861
0.999864
0.999867
0.999871
0.999875
0.999879
0.99989
0.999873
0.9999
1.00023
1.00087
1.00125
1.00097
0.9999
0.999891
0.999882
0.999874
0.999868
0.999863
0.99986
0.999857
0.999856
0.999855
0.999855
0.999857
0.99986
0.999863
0.999867
0.999872
0.999877
0.999883
0.999893
0.999876
0.999918
1.00027
1.00089
1.00124
1.00098
0.999896
0.999886
0.999877
0.999868
0.999862
0.999857
0.999855
0.999852
0.999852
0.999851
0.999852
0.999854
0.999857
0.999862
0.999867
0.999873
0.999879
0.999886
0.999897
0.999879
0.999937
1.00031
1.00089
1.00122
1.00098
0.999891
0.999881
0.999871
0.999863
0.999857
0.999852
0.999849
0.999847
0.999847
0.999847
0.999848
0.999851
0.999855
0.999861
0.999867
0.999874
0.99988
0.99989
0.999901
0.999883
0.999957
1.00035
1.00089
1.0012
1.00098
0.999887
0.999876
0.999866
0.999857
0.999851
0.999846
0.999844
0.999842
0.999842
0.999842
0.999844
0.999847
0.999853
0.999859
0.999866
0.999874
0.999882
0.999893
0.999904
0.999886
0.99998
1.00039
1.0009
1.00118
1.00098
0.999882
0.99987
0.99986
0.999851
0.999845
0.99984
0.999838
0.999836
0.999836
0.999837
0.999839
0.999844
0.99985
0.999857
0.999865
0.999874
0.999883
0.999897
0.999907
0.99989
1.00001
1.00042
1.0009
1.00115
1.00098
0.999876
0.999864
0.999854
0.999845
0.999838
0.999834
0.999831
0.99983
0.99983
0.999832
0.999835
0.999839
0.999846
0.999854
0.999863
0.999874
0.999885
0.9999
0.999909
0.999895
1.00003
1.00046
1.0009
1.00113
1.00099
0.999871
0.999858
0.999847
0.999839
0.999832
0.999827
0.999824
0.999823
0.999824
0.999826
0.999829
0.999835
0.999842
0.999851
0.999862
0.999874
0.999885
0.999903
0.999911
0.9999
1.00006
1.00049
1.0009
1.00112
1.00099
0.999865
0.999852
0.999841
0.999832
0.999825
0.99982
0.999817
0.999816
0.999817
0.999819
0.999823
0.99983
0.999838
0.999848
0.999859
0.999873
0.999886
0.999905
0.999913
0.999906
1.00009
1.00052
1.00091
1.00111
1.00099
0.999859
0.999845
0.999834
0.999824
0.999817
0.999812
0.999809
0.999808
0.999809
0.999812
0.999817
0.999824
0.999833
0.999844
0.999857
0.999871
0.999886
0.999907
0.999914
0.999912
1.00012
1.00055
1.00092
1.0011
1.001
0.999852
0.999838
0.999826
0.999816
0.999809
0.999804
0.999801
0.9998
0.999801
0.999805
0.99981
0.999818
0.999827
0.999839
0.999853
0.999869
0.999886
0.999909
0.999914
0.999919
1.00016
1.00059
1.00092
1.0011
1.001
0.999845
0.99983
0.999818
0.999808
0.9998
0.999795
0.999792
0.999791
0.999793
0.999796
0.999802
0.999811
0.999821
0.999834
0.999849
0.999867
0.999885
0.999909
0.999913
0.999926
1.00019
1.00062
1.00093
1.0011
1.001
0.999838
0.999823
0.99981
0.999799
0.999791
0.999785
0.999782
0.999782
0.999783
0.999787
0.999794
0.999803
0.999814
0.999828
0.999845
0.999864
0.999883
0.999909
0.999911
0.999933
1.00023
1.00065
1.00094
1.00109
1.001
0.99983
0.999814
0.9998
0.999789
0.999781
0.999775
0.999772
0.999771
0.999773
0.999778
0.999785
0.999794
0.999807
0.999822
0.99984
0.99986
0.999881
0.999908
0.999909
0.999942
1.00027
1.00067
1.00094
1.00107
1.00099
0.999822
0.999805
0.999791
0.999779
0.99977
0.999764
0.999761
0.99976
0.999762
0.999767
0.999774
0.999785
0.999798
0.999814
0.999834
0.999855
0.999878
0.999906
0.999905
0.999952
1.00031
1.0007
1.00094
1.00106
1.00099
0.999813
0.999795
0.99978
0.999768
0.999759
0.999752
0.999749
0.999748
0.99975
0.999755
0.999763
0.999774
0.999789
0.999806
0.999827
0.99985
0.999875
0.999903
0.999901
0.999963
1.00035
1.00073
1.00095
1.00106
1.00098
0.999803
0.999785
0.999769
0.999757
0.999747
0.99974
0.999736
0.999735
0.999737
0.999743
0.999751
0.999763
0.999778
0.999797
0.999819
0.999843
0.99987
0.999899
0.999896
0.999976
1.00039
1.00075
1.00096
1.00105
1.00098
0.999793
0.999774
0.999758
0.999744
0.999733
0.999726
0.999722
0.999721
0.999723
0.999729
0.999738
0.999751
0.999767
0.999787
0.99981
0.999836
0.999865
0.999894
0.99989
0.99999
1.00042
1.00077
1.00096
1.00105
1.00099
0.999783
0.999762
0.999745
0.999731
0.999719
0.999711
0.999707
0.999706
0.999708
0.999714
0.999724
0.999737
0.999755
0.999776
0.9998
0.999827
0.999858
0.999887
0.999884
1.00001
1.00046
1.0008
1.00097
1.00105
1.00099
0.999771
0.99975
0.999732
0.999716
0.999704
0.999696
0.999691
0.999689
0.999692
0.999698
0.999708
0.999722
0.999741
0.999763
0.999789
0.999817
0.99985
0.999878
0.999876
1.00002
1.0005
1.00082
1.00098
1.00105
1.001
0.999759
0.999737
0.999717
0.999701
0.999688
0.999679
0.999673
0.999672
0.999674
0.999681
0.999691
0.999706
0.999725
0.999749
0.999776
0.999806
0.999841
0.999868
0.999867
1.00004
1.00054
1.00084
1.00099
1.00105
1.001
0.999746
0.999722
0.999702
0.999685
0.999671
0.999661
0.999655
0.999653
0.999655
0.999662
0.999673
0.999689
0.999709
0.999733
0.999762
0.999793
0.99983
0.999855
0.999858
1.00006
1.00057
1.00086
1.00099
1.00105
1.001
0.999733
0.999707
0.999686
0.999667
0.999652
0.999642
0.999635
0.999633
0.999635
0.999642
0.999653
0.99967
0.99969
0.999716
0.999746
0.999778
0.999816
0.99984
0.999848
1.00008
1.00061
1.00088
1.001
1.00105
1.001
0.999718
0.999691
0.999668
0.999649
0.999633
0.999621
0.999614
0.999611
0.999613
0.99962
0.999632
0.999649
0.99967
0.999697
0.999728
0.999762
0.999801
0.999823
0.999837
1.0001
1.00065
1.0009
1.00101
1.00105
1.00101
0.999702
0.999674
0.99965
0.999629
0.999612
0.999599
0.999592
0.999588
0.99959
0.999597
0.999609
0.999626
0.999648
0.999676
0.999708
0.999743
0.999784
0.999803
0.999824
1.00012
1.00068
1.00091
1.00102
1.00105
1.00101
0.999686
0.999656
0.99963
0.999608
0.99959
0.999576
0.999567
0.999564
0.999565
0.999572
0.999584
0.999601
0.999625
0.999653
0.999686
0.999722
0.999763
0.999779
0.999811
1.00014
1.00071
1.00093
1.00103
1.00106
1.00101
0.999668
0.999637
0.999609
0.999585
0.999566
0.999552
0.999542
0.999537
0.999538
0.999545
0.999557
0.999575
0.999598
0.999628
0.999661
0.999699
0.99974
0.999753
0.999796
1.00017
1.00074
1.00095
1.00104
1.00106
1.00102
0.99965
0.999616
0.999587
0.999562
0.999541
0.999525
0.999515
0.999509
0.99951
0.999516
0.999528
0.999546
0.99957
0.9996
0.999634
0.999673
0.999713
0.999723
0.999781
1.00019
1.00078
1.00097
1.00105
1.00107
1.00103
0.99963
0.999595
0.999564
0.999537
0.999515
0.999497
0.999486
0.999479
0.999479
0.999485
0.999497
0.999515
0.999539
0.99957
0.999604
0.999644
0.999683
0.99969
0.999766
1.00021
1.00081
1.00099
1.00107
1.00108
1.00104
0.99961
0.999572
0.999539
0.99951
0.999486
0.999468
0.999455
0.999448
0.999446
0.999452
0.999463
0.999481
0.999506
0.999536
0.999571
0.999612
0.999648
0.999653
0.999751
1.00024
1.00084
1.00101
1.00108
1.00109
1.00105
0.999588
0.999548
0.999513
0.999482
0.999456
0.999436