/*--------------------------------*- C++ -*----------------------------------*\
| =========                 |                                                 |
| \\      /  F ield         | OpenFOAM: The Open Source CFD Toolbox           |
|  \\    /   O peration     | Version:  v1912                                 |
|   \\  /    A nd           | Website:  www.openfoam.com                      |
|    \\/     M anipulation  |                                                 |
\*---------------------------------------------------------------------------*/
FoamFile
{
    version     2.0;
    format      ascii;
    class       volVectorField;
    location    "1000";
    object      U;
}
// * * * * * * * * * * * * * * * * * * * * * * * * * * * * * * * * * * * * * //

dimensions      [0 1 -1 0 0 0 0];


internalField   nonuniform List<vector> 
9900
(
(0.19155 -4.02796e-05 1.7546e-18)
(0.189468 -0.000438014 1.57582e-17)
(0.190274 -0.00134887 1.74941e-17)
(0.188871 -0.00163317 -1.40011e-17)
(0.189252 -0.00268458 -2.09433e-17)
(0.18875 -0.00319248 1.39875e-17)
(0.189215 -0.00413711 -2.79643e-17)
(0.1893 -0.00496241 2.22458e-21)
(0.19021 -0.00571231 6.97855e-17)
(0.190916 -0.00637469 0)
(0.192034 -0.00688932 5.56873e-17)
(0.193247 -0.00722172 4.18591e-17)
(0.194586 -0.00726728 8.38403e-17)
(0.196001 -0.00683152 -6.9913e-17)
(0.197338 -0.0059696 0)
(0.19857 -0.0047488 0)
(0.199692 -0.00329029 -4.20881e-17)
(0.200672 -0.00167796 -5.36857e-21)
(0.201526 -3.24088e-05 -2.81569e-17)
(0.202373 0.00159634 1.41019e-17)
(0.202684 0.00294021 3.53365e-17)
(0.201863 0.00335603 -1.41626e-17)
(0.199696 0.00202994 -2.48146e-17)
(0.195513 -0.00237266 1.77098e-18)
(0.190922 -0.0147395 5.36213e-18)
(0.195059 9.59627e-05 -3.752e-18)
(0.194974 -0.000129103 -3.00191e-17)
(0.195112 -0.000656904 -1.50131e-17)
(0.195096 -0.000864023 0)
(0.195367 -0.00134662 2.99905e-17)
(0.195467 -0.0016764 0)
(0.195714 -0.00209357 0)
(0.196122 -0.00235854 4.48118e-17)
(0.19634 -0.00254942 -1.04736e-16)
(0.196908 -0.00269012 -5.97712e-17)
(0.197372 -0.00272709 1.49593e-17)
(0.197965 -0.00266323 -1.49713e-16)
(0.198586 -0.00251947 -8.98762e-17)
(0.199242 -0.00237632 8.99443e-17)
(0.200047 -0.00221001 1.49968e-17)
(0.200804 -0.00200522 6.00117e-17)
(0.20137 -0.00177103 1.35243e-16)
(0.201849 -0.00132327 -7.5217e-17)
(0.202123 -0.000763162 0)
(0.201824 -0.000627899 0)
(0.200958 -0.00101827 -3.02294e-17)
(0.19978 -0.00164423 0)
(0.198514 -0.00250065 1.51881e-17)
(0.199007 -0.00166588 1.52203e-17)
(0.195896 0.00298598 -1.14887e-17)
(0.199342 0.000126902 2.0128e-18)
(0.200359 -1.49747e-06 2.20834e-17)
(0.199491 -6.8884e-05 -1.20269e-17)
(0.200523 -0.000242613 6.61175e-22)
(0.199865 -4.75477e-05 8.00657e-18)
(0.20067 -0.00046006 0)
(0.200323 -0.000196168 4.79935e-17)
(0.20091 -0.000225951 -9.60161e-17)
(0.200884 -0.000136362 8.00195e-17)
(0.201043 -3.41521e-05 6.40285e-17)
(0.201133 5.20124e-05 -8.00013e-17)
(0.201155 0.000166713 8.00755e-17)
(0.201208 0.00030401 6.41011e-17)
(0.201168 0.000321934 -4.8113e-17)
(0.201197 0.000178249 -1.60393e-17)
(0.201367 -3.60648e-05 -6.42405e-17)
(0.201568 -0.000307082 -4.82323e-17)
(0.201627 -0.000548707 3.21959e-17)
(0.201464 -0.000809151 -1.61262e-17)
(0.200988 -0.000979066 0)
(0.200455 -0.000942359 8.09572e-18)
(0.200114 -0.000577877 5.79576e-21)
(0.199884 0.000787925 -1.21962e-17)
(0.199608 0.00275809 -1.01913e-17)
(0.197961 0.00287426 2.03859e-18)
(0.199652 0.000146892 2.15043e-18)
(0.199663 -4.63022e-05 -2.14667e-18)
(0.199516 5.84516e-05 4.29012e-18)
(0.19968 -0.000267687 0)
(0.199553 -0.000267838 -8.56407e-18)
(0.199671 -0.000478046 8.55954e-18)
(0.199731 -0.000529253 -1.71087e-17)
(0.199821 -0.000596466 -1.71086e-17)
(0.199925 -0.000640327 0)
(0.200035 -0.000658019 -8.55454e-17)
(0.200128 -0.000644389 1.70962e-17)
(0.200237 -0.000600332 0)
(0.200324 -0.000591739 6.85196e-17)
(0.200429 -0.000598588 0)
(0.200567 -0.000605592 8.5796e-17)
(0.200716 -0.000644972 5.1536e-17)
(0.200904 -0.0006713 0)
(0.201006 -0.000649702 -1.723e-17)
(0.200942 -0.000593743 5.17663e-17)
(0.200738 -0.000388082 8.6482e-18)
(0.20052 -3.48806e-06 -8.66255e-18)
(0.200179 0.000547535 0)
(0.199445 0.00117579 4.35749e-18)
(0.198338 0.00149819 6.55162e-18)
(0.196964 0.00170063 -2.18719e-18)
(0.198764 0.000214953 -6.89955e-18)
(0.198633 -3.96256e-05 -2.29718e-18)
(0.19856 4.15854e-05 4.58971e-18)
(0.198633 -0.000324184 0)
(0.198577 -0.000431047 -3.66527e-17)
(0.198553 -0.0005655 -9.15752e-18)
(0.198795 -0.000724081 4.57672e-17)
(0.198777 -0.000801401 0)
(0.199042 -0.000929433 1.8298e-17)
(0.199258 -0.00102431 9.14998e-17)
(0.199452 -0.00107069 9.15188e-17)
(0.199668 -0.00110999 -1.83121e-17)
(0.199868 -0.00110873 -7.32936e-17)
(0.200066 -0.00113391 -1.83378e-17)
(0.200231 -0.00114021 1.8357e-17)
(0.200369 -0.00107268 -5.5144e-17)
(0.2005 -0.000946925 -5.52237e-17)
(0.200588 -0.000720357 0)
(0.20057 -0.000444928 -2.77106e-17)
(0.200443 -0.000155805 -9.25561e-18)
(0.20021 0.000142698 3.71159e-17)
(0.199774 0.000457969 -1.86022e-17)
(0.199163 0.000850309 4.66396e-18)
(0.19878 0.00159542 -1.16801e-17)
(0.198908 0.00295195 -7.02526e-18)
(0.198104 0.000307965 0)
(0.198285 3.40359e-05 -9.8333e-18)
(0.198139 9.46208e-05 4.91073e-18)
(0.198383 -0.000240316 -4.90634e-18)
(0.198436 -0.000357606 8.8234e-17)
(0.198564 -0.000441788 2.93877e-17)
(0.198748 -0.000592741 -3.91698e-17)
(0.198925 -0.000648012 0)
(0.199045 -0.000749057 -7.83093e-17)
(0.19927 -0.000849328 0)
(0.199504 -0.000911322 0)
(0.199748 -0.000946458 -7.83626e-17)
(0.199977 -0.000980664 0)
(0.200176 -0.0010073 7.84925e-17)
(0.20032 -0.000995684 -1.04485e-20)
(0.2004 -0.000945854 0)
(0.200425 -0.000802346 7.88254e-17)
(0.200412 -0.000586523 0)
(0.200358 -0.000377346 3.95574e-17)
(0.200252 -0.000199704 -4.95568e-17)
(0.200062 1.58928e-05 -2.98039e-17)
(0.199776 0.00034799 1.49322e-17)
(0.199494 0.000875045 4.98784e-18)
(0.199437 0.00167736 1.00037e-17)
(0.199399 0.00246296 1.00279e-17)
(0.198214 0.000407315 2.6337e-18)
(0.198378 0.000158299 1.05206e-17)
(0.198301 0.000180641 5.2537e-18)
(0.198471 -8.31719e-05 5.248e-18)
(0.198587 -0.000212345 -7.34154e-17)
(0.198704 -0.000285323 -6.35397e-21)
(0.198926 -0.000415655 -5.23714e-17)
(0.19913 -0.000494776 -3.14096e-17)
(0.199265 -0.000587819 4.1887e-17)
(0.199469 -0.000691751 0)
(0.199688 -0.000782834 -2.09488e-17)
(0.199918 -0.000867524 6.28937e-17)
(0.200144 -0.000948977 4.19593e-17)
(0.200346 -0.000998858 -1.05006e-16)
(0.200493 -0.000982786 -2.10321e-17)
(0.200563 -0.000898142 0)
(0.20056 -0.000748494 -4.21775e-17)
(0.200523 -0.000589323 5.28137e-17)
(0.200481 -0.000465951 3.17525e-17)
(0.200422 -0.000339776 4.24238e-17)
(0.20031 -0.000123373 1.06334e-17)
(0.200158 0.000227016 -3.72873e-17)
(0.200027 0.000723442 5.33762e-18)
(0.200004 0.00136516 -1.07062e-17)
(0.200123 0.00209672 -8.05046e-18)
(0.198302 0.000502351 -5.63583e-18)
(0.198474 0.000273343 2.81446e-18)
(0.19843 0.000211802 0)
(0.198547 2.37895e-05 -1.12315e-17)
(0.198714 -0.000137443 2.24406e-17)
(0.198824 -0.000220703 -6.7274e-17)
(0.199019 -0.000348687 7.84529e-17)
(0.199223 -0.000487841 4.48211e-17)
(0.199391 -0.000635018 2.24051e-17)
(0.199594 -0.000780249 -2.24104e-17)
(0.199815 -0.000912743 5.16537e-21)
(0.200048 -0.00103697 2.24304e-17)
(0.200287 -0.00113742 -8.98067e-17)
(0.200514 -0.00118277 2.24723e-17)
(0.200698 -0.0011527 -2.81024e-21)
(0.200809 -0.00105393 -2.25318e-17)
(0.200851 -0.000925788 2.2565e-17)
(0.200858 -0.000819192 -4.52159e-17)
(0.20085 -0.000733237 -5.66299e-17)
(0.200814 -0.000603993 6.80847e-17)
(0.200737 -0.000371938 -2.27436e-17)
(0.200634 -2.43337e-05 3.41943e-17)
(0.200534 0.000450383 0)
(0.200481 0.00108477 2.86613e-18)
(0.200516 0.0018663 2.87366e-18)
(0.198251 0.000559563 3.01494e-18)
(0.198436 0.000341653 3.00991e-18)
(0.198441 0.000202411 -1.20264e-17)
(0.198539 4.34877e-05 6.0072e-18)
(0.198743 -0.000157046 2.40044e-17)
(0.19889 -0.000273992 9.59553e-17)
(0.19907 -0.000421143 -1.0789e-16)
(0.199281 -0.000621834 1.19857e-17)
(0.199481 -0.000835585 -4.79303e-17)
(0.199708 -0.00102935 0)
(0.199954 -0.00119299 2.39853e-17)
(0.200205 -0.00132567 -2.39954e-17)
(0.200455 -0.00141101 0)
(0.200698 -0.00143182 -2.40381e-17)
(0.200913 -0.00138713 2.40646e-17)
(0.201074 -0.00129947 0)
(0.201177 -0.00120865 4.82718e-17)
(0.201233 -0.00113517 1.20925e-17)
(0.201246 -0.00104823 3.63418e-17)
(0.201208 -0.000889912 -9.71177e-17)
(0.201126 -0.000626239 -2.43346e-17)
(0.201018 -0.000252064 6.10134e-18)
(0.200887 0.000247545 -1.22311e-17)
(0.200761 0.000885646 3.06304e-18)
(0.200707 0.00159165 -1.41702e-21)
(0.198141 0.000540526 0)
(0.198353 0.000338863 9.66193e-18)
(0.198403 0.000139513 9.64889e-18)
(0.198505 -2.13809e-05 -6.42634e-18)
(0.198734 -0.000248235 -5.13609e-17)
(0.198933 -0.000414831 -4.17366e-21)
(0.199126 -0.000605973 5.12967e-17)
(0.199349 -0.000855779 0)
(0.199582 -0.00110951 5.12761e-17)
(0.199839 -0.00132408 5.1282e-17)
(0.200108 -0.00148898 1.02601e-16)
(0.200369 -0.0016028 0)
(0.200616 -0.00165766 0)
(0.200855 -0.00165494 0)
(0.201081 -0.00160718 -1.02966e-16)
(0.201274 -0.00153781 -5.15558e-17)
(0.201419 -0.00146967 -5.16358e-17)
(0.201503 -0.00139793 0)
(0.20152 -0.00128621 -5.18357e-17)
(0.201471 -0.00109119 2.87997e-21)
(0.201365 -0.000794368 5.20829e-17)
(0.201218 -0.000395369 -6.52951e-18)
(0.20104 0.000107808 9.81715e-18)
(0.200873 0.000701976 -1.64082e-17)
(0.200809 0.0013139 -2.92446e-33)
(0.198052 0.00043348 0)
(0.198273 0.000258037 -1.37822e-17)
(0.198369 1.79623e-05 0)
(0.198487 -0.000158928 -2.74943e-17)
(0.198727 -0.000395031 2.74666e-17)
(0.198967 -0.000609284 -4.11679e-17)
(0.19918 -0.00085069 -1.37166e-17)
(0.199415 -0.00113012 0)
(0.199673 -0.00139076 0)
(0.19995 -0.00159337 -1.23405e-16)
(0.200228 -0.00173362 -2.7434e-17)
(0.200489 -0.00181561 -1.37244e-17)
(0.200729 -0.00184309 0)
(0.200957 -0.00182676 -1.37489e-17)
(0.201176 -0.00178095 1.3765e-16)
(0.201376 -0.00172228 4.13566e-17)
(0.20153 -0.00165677 0)
(0.201619 -0.00156956 0)
(0.201627 -0.00143021 -1.38662e-17)
(0.201556 -0.00120919 6.94726e-17)
(0.201428 -0.000896171 -2.78654e-17)
(0.201263 -0.000493534 2.79429e-17)
(0.201081 -1.30881e-05 0)
(0.200936 0.000515322 1.40552e-17)
(0.20091 0.00101877 0)
(0.197989 0.000254592 3.69088e-18)
(0.198216 0.000107768 -1.47396e-17)
(0.198345 -0.000153548 0)
(0.198483 -0.000349806 1.64192e-21)
(0.198724 -0.000584692 -2.93738e-17)
(0.198986 -0.000830622 0)
(0.199215 -0.00110379 -2.93364e-17)
(0.199456 -0.00138628 1.46611e-17)
(0.199727 -0.00162787 -1.46621e-17)
(0.200014 -0.0018009 4.3991e-17)
(0.200294 -0.00190837 1.46685e-17)
(0.200552 -0.00196117 5.87036e-17)
(0.200785 -0.00197127 0)
(0.201 -0.0019499 -5.88111e-17)
(0.201203 -0.00190726 -4.41634e-17)
(0.201386 -0.00185084 -1.4742e-17)
(0.201528 -0.00177838 -1.47705e-17)
(0.201603 -0.00167457 1.47958e-17)
(0.201601 -0.00151611 2.96653e-17)
(0.201533 -0.00128455 0)
(0.201407 -0.000972504 2.98163e-17)
(0.201251 -0.000584801 -3.56905e-21)
(0.201102 -0.000144506 0)
(0.201011 0.00030532 1.50382e-17)
(0.201043 0.000696706 3.77122e-18)
(0.197934 3.99831e-05 -9.87022e-18)
(0.198171 -8.93338e-05 1.77377e-17)
(0.198317 -0.000353872 0)
(0.198477 -0.000566094 3.14477e-17)
(0.198717 -0.000796022 5.49743e-17)
(0.198983 -0.00105282 5.49257e-17)
(0.199221 -0.00132934 1.56839e-17)
(0.199465 -0.00159066 1.56783e-17)
(0.19974 -0.00179893 6.27084e-17)
(0.200029 -0.00193959 -1.99105e-21)
(0.200308 -0.00202034 -1.25175e-21)
(0.200561 -0.00205544 -7.84755e-17)
(0.200787 -0.00205835 0)
(0.200989 -0.00203728 4.71741e-17)
(0.201173 -0.00199719 -1.91297e-21)
(0.201334 -0.00194012 -2.89743e-21)
(0.201456 -0.00186011 -6.31987e-17)
(0.201522 -0.0017451 1.58294e-17)
(0.201522 -0.00157922 -4.76096e-17)
(0.201464 -0.00135056 -7.95501e-18)
(0.201363 -0.00105318 -7.17866e-17)
(0.201246 -0.000695923 -3.20007e-17)
(0.201149 -0.000309174 0)
(0.201117 5.98742e-05 -1.40863e-17)
(0.201195 0.000356193 -6.0559e-18)
(0.197873 -0.000168044 4.22346e-18)
(0.198125 -0.000299732 -8.43124e-18)
(0.198276 -0.00055514 1.68357e-17)
(0.198457 -0.000775682 0)
(0.198696 -0.00100019 -2.51985e-17)
(0.198959 -0.00125045 -8.39381e-18)
(0.199201 -0.00150811 1.67699e-17)
(0.199446 -0.00173577 3.35251e-17)
(0.199718 -0.00190878 -8.38188e-17)
(0.200003 -0.00202261 6.70601e-17)
(0.200277 -0.00208652 -6.70824e-17)
(0.200524 -0.00211414 -6.7125e-17)
(0.200743 -0.00211665 0)
(0.200935 -0.00209926 6.72595e-17)
(0.201105 -0.00206279 6.73528e-17)
(0.201249 -0.00200652 -6.7467e-17)
(0.201359 -0.00192447 5.06956e-17)
(0.201422 -0.00180754 -3.38755e-17)
(0.201434 -0.00164605 1.69749e-17)
(0.201403 -0.00143171 -8.51156e-18)
(0.201341 -0.00116083 4.26788e-17)
(0.201273 -0.000844778 -3.42388e-17)
(0.20123 -0.000514542 -1.71704e-17)
(0.201247 -0.000214229 8.6133e-18)
(0.201348 1.20818e-05 0)
(0.197803 -0.000337519 0)
(0.198071 -0.000491075 1.80349e-17)
(0.198223 -0.000731607 -4.50133e-17)
(0.198417 -0.000951568 8.99196e-18)
(0.198659 -0.00117061 3.59185e-17)
(0.198916 -0.00140472 -3.58896e-17)
(0.199159 -0.00163429 1.79345e-17)
(0.199403 -0.00182838 -7.16988e-17)
(0.199667 -0.00197237 1.7925e-17)
(0.199943 -0.00206728 -5.37767e-17)
(0.20021 -0.00212241 -1.79328e-17)
(0.200451 -0.00214927 5.38329e-17)
(0.200664 -0.00215637 3.59218e-17)
(0.20085 -0.00214602 -8.99115e-17)
(0.201014 -0.00211738 -1.801e-17)
(0.201154 -0.00206748 9.01967e-17)
(0.201262 -0.00199175 1.8079e-17)
(0.201334 -0.00188376 7.24748e-17)
(0.201368 -0.00173701 -5.44868e-17)
(0.201371 -0.00154513 3.64256e-17)
(0.201352 -0.00130632 -3.65241e-17)
(0.201332 -0.00103194 4.58028e-17)
(0.201334 -0.000750727 2.75671e-17)
(0.201381 -0.000502823 -1.84387e-17)
(0.201489 -0.000326297 -9.25165e-18)
(0.197729 -0.000457267 0)
(0.198007 -0.000642278 -1.92855e-17)
(0.198161 -0.000867844 1.92538e-17)
(0.198362 -0.0010804 0)
(0.198604 -0.00129324 -3.84132e-17)
(0.198857 -0.0015097 0)
(0.1991 -0.00171319 -3.83477e-17)
(0.199341 -0.00188141 3.83327e-17)
(0.199596 -0.00200565 0)
(0.199861 -0.00208956 0)
(0.200119 -0.00214253 7.66963e-17)
(0.200354 -0.00217415 1.91872e-17)
(0.200563 -0.00219068 -3.84127e-17)
(0.20075 -0.00219265 1.92297e-17)
(0.200916 -0.00217754 -7.70396e-17)
(0.20106 -0.00214159 0)
(0.201179 -0.00208059 0)
(0.201269 -0.0019894 -3.87613e-17)
(0.201332 -0.00186258 3.88603e-17)
(0.201371 -0.00169477 0)
(0.201393 -0.00148541 3.90848e-17)
(0.201412 -0.00124573 0)
(0.201444 -0.00100299 -1.96642e-17)
(0.201506 -0.000794623 1.97316e-17)
(0.201612 -0.000655091 1.48548e-17)
(0.197649 -0.000533383 -5.16514e-18)
(0.19793 -0.000748258 1.28884e-17)
(0.198094 -0.000962209 -5.14651e-18)
(0.198294 -0.00116468 1.54194e-17)
(0.198533 -0.00137065 -1.02677e-17)
(0.198784 -0.00157319 0)
(0.199027 -0.00175873 1.02483e-17)
(0.199265 -0.00191122 -5.1227e-17)
(0.199512 -0.00202525 4.09805e-17)
(0.199767 -0.00210617 -2.04917e-17)
(0.200015 -0.00216376 6.15059e-17)
(0.200246 -0.00220629 0)
(0.200455 -0.00223754 0)
(0.200646 -0.00225696 0)
(0.20082 -0.00226074 -2.05966e-17)
(0.200977 -0.00224401 -2.0635e-17)
(0.201115 -0.0022021 -4.1363e-17)
(0.201231 -0.00212995 3.10905e-17)
(0.201324 -0.00202213 1.03895e-17)
(0.201395 -0.00187397 0)
(0.20145 -0.00168662 -1.04533e-17)
(0.201496 -0.00147276 -5.24247e-18)
(0.201545 -0.00125962 -5.25888e-18)
(0.201614 -0.00108288 -7.91794e-18)
(0.201716 -0.000973251 -7.94845e-18)
(0.197563 -0.000580402 2.20059e-23)
(0.197841 -0.000816471 5.51275e-18)
(0.198019 -0.00102409 1.65111e-17)
(0.198217 -0.00121826 1.09892e-17)
(0.198449 -0.00141804 -1.09773e-17)
(0.198697 -0.00161245 4.38622e-17)
(0.198941 -0.00178928 3.28783e-17)
(0.19918 -0.00193581 6.57287e-17)
(0.199421 -0.00204874 -5.47644e-17)
(0.199667 -0.00213478 0)
(0.199909 -0.0022039 -6.57583e-17)
(0.200137 -0.00226303 4.38736e-17)
(0.20035 -0.00231391 -4.39201e-17)
(0.20055 -0.00235423 4.39807e-17)
(0.200738 -0.002379 2.20271e-17)
(0.200913 -0.00238239 0)
(0.201073 -0.00235876 3.31745e-17)
(0.201214 -0.00230242 -2.21723e-17)
(0.201334 -0.00220783 -5.55732e-17)
(0.201432 -0.00207187 -4.45805e-17)
(0.201509 -0.00189829 -1.11813e-17)
(0.201571 -0.00170272 3.3649e-17)
(0.201631 -0.00151357 -2.81424e-17)
(0.201705 -0.00136465 5.64842e-18)
(0.201806 -0.00128152 2.51951e-33)
(0.197473 -0.000613624 2.95361e-18)
(0.197742 -0.000860647 -5.89407e-18)
(0.197937 -0.00106785 -1.76521e-17)
(0.198133 -0.00125897 -2.34993e-17)
(0.198357 -0.00145531 1.17339e-17)
(0.1986 -0.00164737 -7.03462e-17)
(0.198846 -0.00182335 -3.5145e-17)
(0.199087 -0.00197216 -4.68438e-17)
(0.199328 -0.00209213 4.68382e-17)
(0.19957 -0.00219074 -2.34226e-17)
(0.199808 -0.00227733 1.26058e-21)
(0.200038 -0.00235717 7.03637e-17)
(0.200258 -0.00243002 0)
(0.20047 -0.00249174 -2.35132e-17)
(0.200674 -0.00253612 2.46108e-21)
(0.200869 -0.00255633 -2.3598e-17)
(0.20105 -0.00254577 -4.73035e-17)
(0.201213 -0.0024983 4.74203e-17)
(0.201354 -0.00240902 5.94373e-17)
(0.201469 -0.00227752 2.38453e-17)
(0.201559 -0.00211139 1.19568e-17)
(0.201633 -0.00192995 2.39961e-17)
(0.201701 -0.00176265 3.01118e-17)
(0.201781 -0.00164029 -6.04403e-18)
(0.201888 -0.00158157 -3.03485e-18)
(0.197378 -0.000645178 -6.31654e-18)
(0.197634 -0.000895117 3.15203e-18)
(0.197846 -0.00110747 0)
(0.198042 -0.00130238 2.51236e-17)
(0.198259 -0.00150003 0)
(0.198498 -0.00169484 0)
(0.198745 -0.00187586 1.25228e-17)
(0.198991 -0.00203339 3.75546e-17)
(0.199234 -0.00216694 -1.00141e-16)
(0.199477 -0.00228378 1.25198e-17)
(0.199717 -0.00239176 -6.2636e-17)
(0.199952 -0.002494 -7.52225e-17)
(0.200182 -0.00258828 5.02062e-17)
(0.200407 -0.00266876 7.5419e-17)
(0.200628 -0.00272811 -1.25923e-17)
(0.200841 -0.00275865 6.30838e-17)
(0.201039 -0.00275339 1.01163e-16)
(0.201219 -0.00270658 -6.33873e-17)
(0.201372 -0.00261536 1.27105e-17)
(0.201498 -0.00248282 0)
(0.201598 -0.00232121 0)
(0.20168 -0.0021532 -2.56743e-17)
(0.201758 -0.00200805 0)
(0.20185 -0.00191177 3.2353e-18)
(0.201965 -0.00187491 3.24912e-18)
(0.197279 -0.000682743 3.37696e-18)
(0.19752 -0.000931427 0)
(0.197745 -0.00115349 -6.72486e-18)
(0.197945 -0.00135892 -1.34297e-17)
(0.198156 -0.00156364 -3.35298e-17)
(0.198391 -0.00176578 0)
(0.198641 -0.0019562 5.35518e-17)
(0.198892 -0.00212703 1.3381e-17)
(0.199142 -0.00227849 4.0139e-17)
(0.199389 -0.00241672 0)
(0.199634 -0.0025473 5.35629e-17)
(0.199877 -0.00267098 0)
(0.200118 -0.0027835 0)
(0.200358 -0.00287759 -5.37516e-17)
(0.200593 -0.00294504 0)
(0.20082 -0.0029781 -5.39559e-17)
(0.201032 -0.00297019 -6.76022e-17)
(0.201221 -0.00291711 1.35542e-17)
(0.201383 -0.0028193 -5.4375e-17)
(0.201516 -0.00268388 0)
(0.201624 -0.00252737 2.05213e-17)
(0.201717 -0.00237457 4.11954e-17)
(0.201809 -0.0022527 -6.89217e-18)
(0.201915 -0.0021813 0)
(0.202042 -0.00216242 -6.18485e-22)
(0.197173 -0.000729858 3.6104e-18)
(0.197399 -0.000977162 3.60174e-18)
(0.197633 -0.00121233 -3.59535e-18)
(0.197839 -0.00143361 2.87101e-17)
(0.198048 -0.00165102 2.86708e-17)
(0.198281 -0.00186458 -2.8641e-17)
(0.198533 -0.00206767 -5.72362e-17)
(0.198791 -0.00225461 -5.72158e-17)
(0.199048 -0.00242591 5.72101e-17)
(0.199303 -0.00258599 0)
(0.199555 -0.00273778 -5.7254e-17)
(0.199808 -0.00287952 0)
(0.200061 -0.00300511 0)
(0.200313 -0.00310626 0)
(0.200561 -0.00317458 5.7563e-17)
(0.200799 -0.00320291 0)
(0.20102 -0.00318626 -5.78214e-17)
(0.201216 -0.00312313 5.79744e-17)
(0.201384 -0.00301743 5.81436e-17)
(0.201524 -0.00288069 2.91644e-17)
(0.201642 -0.00273241 -2.92688e-17)
(0.201748 -0.00259756 -2.93804e-17)
(0.201858 -0.00249946 -3.68802e-18)
(0.201981 -0.00245032 3.70296e-18)
(0.202121 -0.00244438 -7.4405e-18)
(0.197058 -0.000787261 8.35908e-23)
(0.197272 -0.00103622 3.85022e-18)
(0.19751 -0.00128683 -1.92146e-17)
(0.197721 -0.00152742 -3.06893e-17)
(0.197932 -0.0017619 -3.83069e-17)
(0.198165 -0.0019903 3.82644e-17)
(0.19842 -0.00220839 1.52927e-17)
(0.198685 -0.00241267 3.05723e-17)
(0.198951 -0.00260365 -1.06997e-16)
(0.199214 -0.00278377 0)
(0.199476 -0.00295326 6.11909e-17)
(0.199739 -0.00310805 -4.59374e-17)
(0.200003 -0.00324062 -9.19855e-17)
(0.200266 -0.00334235 1.53541e-17)
(0.200524 -0.0034054 -6.15303e-17)
(0.200771 -0.00342403 0)
(0.200998 -0.00339559 1.3908e-16)
(0.201201 -0.00332194 -9.29741e-17)
(0.201376 -0.00321047 1.55414e-17)
(0.201525 -0.00307619 -2.33916e-17)
(0.201656 -0.00294014 2.34774e-17)
(0.20178 -0.00282549 3.14252e-17)
(0.201909 -0.00275024 1.18335e-17)
(0.20205 -0.00271928 3.96202e-18)
(0.2022 -0.00272052 3.98136e-18)
(0.196933 -0.000854424 -4.12581e-18)
(0.197136 -0.00110979 8.23194e-18)
(0.197374 -0.00137735 8.21291e-18)
(0.197591 -0.00163881 2.45979e-17)
(0.197806 -0.00189301 3.27507e-17)
(0.198042 -0.00213862 3.27152e-17)
(0.198301 -0.00237309 0)
(0.198572 -0.00259465 -1.63361e-17)
(0.198847 -0.00280358 1.47021e-16)
(0.19912 -0.0030004 -1.63388e-17)
(0.199392 -0.00318291 8.17479e-17)
(0.199665 -0.00334524 1.30913e-16)
(0.199939 -0.00347906 6.55363e-17)
(0.200211 -0.00357612 -6.56439e-17)
(0.200478 -0.00362987 -4.93262e-17)
(0.200732 -0.00363664 -1.64774e-17)
(0.200966 -0.00359666 -1.15637e-16)
(0.201176 -0.00351469 1.65675e-17)
(0.20136 -0.00340171 0)
(0.201522 -0.00327458 -3.335e-17)
(0.201669 -0.00315423 -3.34778e-17)
(0.201813 -0.00306055 -4.20194e-17)
(0.201962 -0.00300563 8.43729e-18)
(0.20212 -0.00298776 -8.47821e-18)
(0.20228 -0.00299039 0)
(0.196795 -0.000930587 0)
(0.196992 -0.00119733 -4.39847e-18)
(0.197225 -0.00148269 2.19488e-17)
(0.197447 -0.00176506 1.75268e-17)
(0.197668 -0.00203982 0)
(0.197908 -0.00230374 -3.4959e-17)
(0.198172 -0.00255498 1.74643e-17)
(0.198451 -0.00279283 -2.57538e-21)
(0.198734 -0.00301713 -8.72765e-17)
(0.199017 -0.00322668 5.23825e-17)
(0.199299 -0.00341738 -6.98782e-17)
(0.199582 -0.00358221 1.74919e-17)
(0.199865 -0.00371287 0)
(0.200146 -0.00380202 1.75344e-17)
(0.20042 -0.00384497 7.02883e-17)
(0.200681 -0.00384035 -8.80605e-17)
(0.200923 -0.00379132 5.29719e-17)
(0.201143 -0.0037053 -3.54216e-17)
(0.20134 -0.00359565 1.7766e-17)
(0.201518 -0.00347986 3.56623e-17)
(0.201685 -0.00337729 0)
(0.201851 -0.00330366 0)
(0.20202 -0.00326521 -1.3543e-17)
(0.202192 -0.00325489 -4.53394e-18)
(0.202359 -0.00325353 -4.55749e-18)
(0.196645 -0.00101506 4.71389e-18)
(0.196836 -0.00129729 -1.41058e-17)
(0.197065 -0.00160072 -9.51074e-22)
(0.197289 -0.00190299 -2.34112e-17)
(0.197516 -0.00219774 0)
(0.197763 -0.00247987 3.73582e-17)
(0.198033 -0.00274742 0)
(0.198319 -0.00300001 0)
(0.198611 -0.00323685 -3.73044e-17)
(0.198904 -0.00345532 -9.32756e-17)
(0.199196 -0.00365007 7.46711e-17)
(0.199489 -0.00381366 -1.12112e-16)
(0.199781 -0.00393847 3.74215e-17)
(0.20007 -0.00401865 3.7481e-17)
(0.200353 -0.00405151 -6.20196e-22)
(0.200622 -0.00403804 5.64688e-17)
(0.200874 -0.00398383 3.77484e-17)
(0.201107 -0.00389853 0)
(0.201319 -0.00379656 0)
(0.201517 -0.00369501 -3.813e-17)
(0.201705 -0.0036106 0)
(0.201892 -0.00355452 -4.80665e-18)
(0.20208 -0.00352785 -9.37923e-22)
(0.202265 -0.00351966 2.42596e-17)
(0.202438 -0.00350972 1.46293e-17)
(0.196482 -0.00110706 -5.03737e-18)
(0.196669 -0.00140756 1.25613e-17)
(0.196892 -0.00172885 0)
(0.197118 -0.00204948 1.0008e-17)
(0.197352 -0.00236271 9.99128e-18)
(0.197606 -0.002662 -8.98038e-17)
(0.197882 -0.00294479 4.98505e-17)
(0.198176 -0.00321034 -1.99278e-17)
(0.198477 -0.00345712 5.97802e-17)
(0.19878 -0.00368145 0)
(0.199083 -0.00387735 -3.98873e-17)
(0.199385 -0.00403763 -1.99634e-17)
(0.199687 -0.00415581 3.99819e-17)
(0.199986 -0.00422778 -2.00254e-17)
(0.200278 -0.00425286 4.01338e-17)
(0.200558 -0.00423416 0)
(0.200823 -0.00417906 -2.01706e-17)
(0.20107 -0.00409878 -2.02339e-17)
(0.201301 -0.00400772 -3.04572e-17)
(0.201519 -0.00392171 7.13417e-17)
(0.20173 -0.00385423 1.02346e-17)
(0.201937 -0.00381211 -3.08378e-17)
(0.202142 -0.00379227 0)
(0.202338 -0.00378126 -7.78551e-18)
(0.202517 -0.00375906 -1.826e-17)
(0.196306 -0.00120541 -1.88616e-22)
(0.196491 -0.00152566 -2.68476e-18)
(0.196709 -0.00186428 2.14262e-17)
(0.196936 -0.00220162 -1.06919e-17)
(0.197175 -0.00253142 -1.06748e-17)
(0.197436 -0.00284631 8.52822e-17)
(0.19772 -0.0031429 -4.26016e-17)
(0.198021 -0.00341973 0)
(0.198332 -0.00367441 2.12872e-17)
(0.198646 -0.00390259 -2.12941e-17)
(0.19896 -0.00409816 4.26159e-17)
(0.199274 -0.00425467 2.13289e-17)
(0.199586 -0.00436703 -4.27183e-17)
(0.199896 -0.00443291 2.13972e-17)
(0.200199 -0.00445343 -4.28858e-17)
(0.200491 -0.00443343 -2.14962e-17)
(0.200771 -0.00438137 2.15576e-17)
(0.201036 -0.00430946 0)
(0.201287 -0.00423118 4.34107e-17)
(0.201527 -0.00416044 -8.71635e-17)
(0.201759 -0.0041074 -1.0943e-17)
(0.201986 -0.00407511 1.09937e-17)
(0.202206 -0.00405729 -2.20918e-17)
(0.202412 -0.00403923 -2.77596e-18)
(0.202596 -0.00400191 1.11627e-17)
(0.196117 -0.00130842 -2.87655e-18)
(0.196301 -0.00164893 0)
(0.196515 -0.00200426 -2.28907e-17)
(0.196742 -0.00235686 0)
(0.196987 -0.00270137 0)
(0.197254 -0.00303017 -9.11023e-17)
(0.197545 -0.00333908 -1.13766e-17)
(0.197855 -0.00362575 -3.41154e-17)
(0.198175 -0.00388702 -4.54813e-17)
(0.198501 -0.0041181 2.27446e-17)
(0.198828 -0.00431319 -2.27583e-17)
(0.199154 -0.00446682 -2.27842e-17)
(0.199479 -0.00457536 4.5635e-17)
(0.199802 -0.00463806 -2.28595e-17)
(0.200118 -0.00465756 -2.2912e-17)
(0.200426 -0.00463991 2.29686e-17)
(0.200722 -0.00459428 4.60741e-17)
(0.201006 -0.00453273 5.77854e-17)
(0.201278 -0.0044677 -1.15994e-17)
(0.201539 -0.00441076 9.31756e-17)
(0.201792 -0.00436897 0)
(0.202037 -0.0043422 2.35089e-17)
(0.202271 -0.00432204 2.36273e-17)
(0.202487 -0.00429341 0)
(0.202676 -0.00423887 -2.98545e-18)
(0.195917 -0.00141395 3.07336e-18)
(0.1961 -0.00177473 1.22587e-17)
(0.19631 -0.00214625 0)
(0.196539 -0.00251305 0)
(0.196787 -0.00287078 -1.21793e-17)
(0.197061 -0.00321201 7.29828e-17)
(0.19736 -0.00353198 -6.07674e-17)
(0.197678 -0.00382748 4.85819e-17)
(0.198009 -0.00409471 3.64318e-17)
(0.198347 -0.00432872 1.21485e-17)
(0.198687 -0.00452424 -3.6466e-17)
(0.199028 -0.00467682 -1.21694e-17)
(0.199368 -0.00478419 0)
(0.199705 -0.00484693 -1.22099e-17)
(0.200037 -0.00486881 6.11877e-17)
(0.200361 -0.00485661 1.22708e-17)
(0.200676 -0.00481977 -6.15393e-17)
(0.20098 -0.00476952 -4.94011e-17)
(0.201274 -0.00471712 -1.23983e-17)
(0.201557 -0.00467174 -2.48998e-17)
(0.20183 -0.00463768 -3.7517e-17)
(0.202092 -0.00461235 0)
(0.202339 -0.00458604 0)
(0.202564 -0.00454403 -1.27001e-17)
(0.202759 -0.0044707 -3.19304e-18)
(0.195706 -0.0015197 0)
(0.195887 -0.00190058 -1.6369e-17)
(0.196096 -0.00228805 3.26578e-18)
(0.196326 -0.00266854 0)
(0.196579 -0.00303854 -3.90312e-17)
(0.196858 -0.00339114 1.29931e-17)
(0.197164 -0.00372129 5.1915e-17)
(0.197491 -0.00402511 0)
(0.197833 -0.00429831 -3.89137e-17)
(0.198184 -0.00453603 -1.29746e-17)
(0.198539 -0.00473357 6.49153e-17)
(0.198896 -0.00488749 -1.29978e-17)
(0.199252 -0.0049966 0)
(0.199607 -0.00506253 -1.30422e-17)
(0.199956 -0.00508974 -3.92199e-17)
(0.2003 -0.00508538 -1.31091e-17)
(0.200635 -0.00505865 6.57523e-17)
(0.20096 -0.00501988 0)
(0.201275 -0.00497877 0)
(0.201579 -0.0049423 1.33068e-17)
(0.201871 -0.00491244 1.33701e-17)
(0.20215 -0.00488485 0)
(0.202409 -0.00484919 3.37698e-18)
(0.202644 -0.00479154 1.01878e-17)
(0.202846 -0.00469823 6.83093e-18)
(0.195482 -0.00162346 0)
(0.195663 -0.00202439 1.39897e-17)
(0.195872 -0.00242793 2.0928e-17)
(0.196104 -0.00282212 -6.96074e-18)
(0.196361 -0.00320411 6.94711e-17)
(0.196646 -0.00356763 -1.38761e-17)
(0.196959 -0.00390758 -4.15836e-17)
(0.197295 -0.0042197 6.92689e-17)
(0.197649 -0.00449944 5.54005e-17)
(0.198013 -0.00474215 0)
(0.198384 -0.0049437 -5.5456e-17)
(0.198758 -0.00510149 0)
(0.199133 -0.0052152 0)
(0.199506 -0.0052871 0)
(0.199876 -0.00532206 5.58536e-17)
(0.20024 -0.00532719 0)
(0.200596 -0.00531122 -5.61949e-17)
(0.200943 -0.00528339 -4.23017e-17)
(0.20128 -0.00525179 1.4158e-17)
(0.201605 -0.00522145 -1.42212e-17)
(0.201916 -0.00519249 -1.42887e-17)
(0.202211 -0.00515937 -7.18174e-18)
(0.202484 -0.00511167 -7.22059e-18)
(0.202729 -0.00503656 -1.45242e-17)
(0.202938 -0.00492235 -3.65325e-18)
(0.195247 -0.00172342 3.74745e-18)
(0.195428 -0.00214455 -1.12064e-17)
(0.195638 -0.00256467 -1.86258e-17)
(0.195872 -0.00297315 0)
(0.196134 -0.00336746 -2.9675e-17)
(0.196425 -0.00374206 0)
(0.196746 -0.00409201 7.40028e-17)
(0.197091 -0.0044129 -7.39585e-17)
(0.197456 -0.00470017 0)
(0.197835 -0.00494943 -1.47933e-17)
(0.198222 -0.0051571 -2.96122e-17)
(0.198615 -0.00532125 -2.96449e-17)
(0.19901 -0.00544211 2.96927e-17)
(0.199404 -0.00552234 -2.9754e-17)
(0.199795 -0.00556686 2.98282e-17)
(0.200181 -0.00558254 -1.49578e-17)
(0.20056 -0.00557738 0)
(0.20093 -0.00555948 4.51922e-17)
(0.201289 -0.0055354 -4.53813e-17)
(0.201635 -0.00550847 0)
(0.201965 -0.0054774 3.05443e-17)
(0.202276 -0.00543593 0)
(0.202563 -0.00537394 1.15798e-17)
(0.202818 -0.00527987 1.94143e-17)
(0.203037 -0.00514394 0)
(0.195 -0.00181831 -4.00248e-18)
(0.19518 -0.00226005 -7.9796e-18)
(0.195393 -0.0026976 0)
(0.195631 -0.0031214 0)
(0.195899 -0.00352896 -2.37683e-17)
(0.196196 -0.00391539 2.37309e-17)
(0.196524 -0.00427608 -1.58031e-17)
(0.196879 -0.00460669 3.15864e-17)
(0.197256 -0.0049028 4.73746e-17)
(0.19765 -0.00516034 1.57949e-17)
(0.198055 -0.00537623 1.1065e-16)
(0.198467 -0.00554898 -6.33078e-17)
(0.198882 -0.00567916 0)
(0.199299 -0.00576954 6.35469e-17)
(0.199713 -0.0058249 -7.96365e-17)
(0.200123 -0.00585162 1.59758e-17)
(0.200525 -0.00585692 -1.60303e-17)
(0.200919 -0.00584768 -3.21854e-17)
(0.201301 -0.00582907 4.84861e-17)
(0.201668 -0.00580299 -4.05945e-17)
(0.202018 -0.00576711 4.08012e-17)
(0.202346 -0.00571486 0)
(0.202647 -0.00563666 0)
(0.202915 -0.00552232 8.30245e-18)
(0.203144 -0.0053639 0)
(0.19474 -0.00190748 -4.27505e-18)
(0.194921 -0.00237047 8.52087e-18)
(0.195137 -0.0028266 -1.69933e-17)
(0.19538 -0.0032671 1.69517e-17)
(0.195654 -0.00368932 4.22898e-17)
(0.195959 -0.00408889 -5.0668e-17)
(0.196295 -0.00446157 8.4364e-18)
(0.196661 -0.00480323 -6.7443e-17)
(0.19705 -0.00510972 -6.74302e-17)
(0.197459 -0.00537736 -6.74553e-17)
(0.197881 -0.00560341 -6.75017e-17)
(0.198314 -0.00578671 8.4481e-17)
(0.198751 -0.00592796 -3.38521e-17)
(0.199191 -0.00602985 -5.08855e-17)
(0.19963 -0.00609683 6.80291e-17)
(0.200064 -0.00613469 6.82424e-17)
(0.200492 -0.00614974 0)
(0.20091 -0.00614775 6.87566e-17)
(0.201316 -0.00613257 8.63265e-18)
(0.201705 -0.00610497 1.73491e-17)