/*--------------------------------*- C++ -*----------------------------------*\
| =========                 |                                                 |
| \\      /  F ield         | OpenFOAM: The Open Source CFD Toolbox           |
|  \\    /   O peration     | Version:  v1912                                 |
|   \\  /    A nd           | Website:  www.openfoam.com                      |
|    \\/     M anipulation  |                                                 |
\*---------------------------------------------------------------------------*/
FoamFile
{
    version     2.0;
    format      ascii;
    class       volVectorField;
    location    "1000";
    object      UMean;
}
// * * * * * * * * * * * * * * * * * * * * * * * * * * * * * * * * * * * * * //

dimensions      [0 1 -1 0 0 0 0];


internalField   nonuniform List<vector> 
9900
(
(0.191645 -0.00025197 1.78793e-18)
(0.19051 -0.000615638 1.60576e-17)
(0.191419 -0.00124381 1.78267e-17)
(0.190742 -0.0016734 -1.42645e-17)
(0.191294 -0.00223968 -2.1345e-17)
(0.191168 -0.00274533 1.42492e-17)
(0.191472 -0.00324799 -2.84885e-17)
(0.191678 -0.00381103 7.22497e-22)
(0.191913 -0.00432832 7.11232e-17)
(0.192279 -0.00486992 0)
(0.19261 -0.00538554 5.67739e-17)
(0.193066 -0.00588835 4.26708e-17)
(0.193528 -0.00637492 8.54677e-17)
(0.194072 -0.00682233 -7.12657e-17)
(0.194672 -0.00722354 0)
(0.195304 -0.00753141 0)
(0.195951 -0.00773528 -4.28653e-17)
(0.196622 -0.00783823 -3.76424e-21)
(0.197326 -0.00777404 -2.87061e-17)
(0.198076 -0.00751196 1.43781e-17)
(0.198882 -0.00704251 3.59663e-17)
(0.199768 -0.00634265 -1.44244e-17)
(0.200767 -0.00533865 -2.52685e-17)
(0.201825 -0.00412012 1.81124e-18)
(0.203727 -0.00154061 5.43951e-18)
(0.195294 -0.000130815 -3.82365e-18)
(0.195475 -0.000410721 -3.05879e-17)
(0.195523 -0.000683332 -1.52946e-17)
(0.195779 -0.00091374 0)
(0.195883 -0.00115963 3.05458e-17)
(0.196174 -0.00136317 0)
(0.196362 -0.00154639 0)
(0.196652 -0.00169792 4.56691e-17)
(0.196948 -0.00181007 -1.06702e-16)
(0.197241 -0.00188987 -6.09154e-17)
(0.197588 -0.00192652 1.52441e-17)
(0.19791 -0.00192389 -1.5257e-16)
(0.198287 -0.00187342 -9.16084e-17)
(0.198681 -0.00175919 9.16977e-17)
(0.199139 -0.0015502 1.52883e-17)
(0.199666 -0.001241 6.11897e-17)
(0.200213 -0.000872381 1.37954e-16)
(0.200671 -0.000406027 -7.67016e-17)
(0.201068 9.16338e-05 0)
(0.201404 0.000538109 0)
(0.201704 0.000960323 -3.08632e-17)
(0.201897 0.00130911 0)
(0.202055 0.00151471 1.54871e-17)
(0.20193 0.00132361 1.55149e-17)
(0.20182 0.00102004 -1.1661e-17)
(0.199721 -2.02467e-06 2.05094e-18)
(0.200516 -0.000157866 2.25036e-17)
(0.199817 -6.12854e-05 -1.22551e-17)
(0.200512 -0.00016785 2.61211e-22)
(0.200112 -5.10638e-05 8.15805e-18)
(0.200488 -0.000125604 0)
(0.200408 -4.58e-05 4.89072e-17)
(0.20051 -4.32452e-06 -9.78319e-17)
(0.20059 4.23288e-05 8.15283e-17)
(0.200611 0.000118065 6.52388e-17)
(0.200688 0.000180803 -8.15411e-17)
(0.200701 0.000258463 8.16059e-17)
(0.200703 0.00033665 6.53337e-17)
(0.200665 0.000408709 -4.90437e-17)
(0.200593 0.000433996 -1.63541e-17)
(0.200542 0.000387282 -6.55091e-17)
(0.200536 0.000300519 -4.91945e-17)
(0.200602 0.000173468 3.28423e-17)
(0.200699 4.53187e-06 -1.6449e-17)
(0.200778 -0.000206485 0)
(0.200811 -0.000514739 8.25169e-18)
(0.200789 -0.00091805 5.32697e-22)
(0.200823 -0.00136347 -1.24268e-17)
(0.200905 -0.0017694 -1.03754e-17)
(0.201326 -0.00187134 2.0799e-18)
(0.19982 -5.68936e-06 2.19136e-18)
(0.199878 -0.0001316 -2.18774e-18)
(0.199745 -7.8949e-05 4.3717e-18)
(0.199826 -0.000199708 0)
(0.199753 -0.000194364 -8.72795e-18)
(0.199761 -0.000255477 8.72314e-18)
(0.199755 -0.00030586 -1.74351e-17)
(0.199732 -0.000345826 -1.74376e-17)
(0.199738 -0.000402599 0)
(0.199726 -0.000445843 -8.72137e-17)
(0.199729 -0.000494068 1.74185e-17)
(0.199732 -0.000540038 0)
(0.199744 -0.00058302 6.9877e-17)
(0.199744 -0.000628065 0)
(0.199715 -0.000681224 8.75102e-17)
(0.19967 -0.000749003 5.25694e-17)
(0.199676 -0.000844727 0)
(0.199748 -0.000963337 -1.75713e-17)
(0.199892 -0.00109466 5.27949e-17)
(0.200084 -0.00121692 8.81506e-18)
(0.20032 -0.00128782 -8.83173e-18)
(0.200615 -0.00124618 0)
(0.200964 -0.00104515 4.4347e-18)
(0.20139 -0.000703417 6.66669e-18)
(0.201569 -0.000224383 -2.22766e-18)
(0.198859 -4.14004e-05 -7.03091e-18)
(0.198783 -0.000172072 -2.34106e-18)
(0.198767 -0.000219823 4.67701e-18)
(0.198698 -0.000350287 0)
(0.198748 -0.00045149 -3.73563e-17)
(0.19866 -0.000536628 -9.334e-18)
(0.198754 -0.000661403 4.66525e-17)
(0.198731 -0.000771284 0)
(0.198785 -0.000864118 1.86566e-17)
(0.19885 -0.00097709 9.32891e-17)
(0.198908 -0.00106409 9.33205e-17)
(0.199003 -0.00115799 -1.86743e-17)
(0.199102 -0.00122819 -7.47472e-17)
(0.199221 -0.00129461 -1.87033e-17)
(0.199338 -0.00133667 1.87294e-17)
(0.199444 -0.00135463 -5.62413e-17)
(0.199555 -0.00133765 -5.63217e-17)
(0.199687 -0.00130694 0)
(0.199848 -0.00126299 -2.82522e-17)
(0.200047 -0.00119509 -9.43531e-18)
(0.200294 -0.00108961 3.7812e-17)
(0.200569 -0.000969732 -1.89453e-17)
(0.200818 -0.000889897 4.74695e-18)
(0.200931 -0.000924218 -1.1896e-17)
(0.201018 -0.00120592 -7.15523e-18)
(0.198343 -5.6426e-05 0)
(0.198463 -0.000192576 -1.00199e-17)
(0.198427 -0.000287026 5.00434e-18)
(0.198502 -0.000404076 -4.99963e-18)
(0.198547 -0.000534355 8.9925e-17)
(0.198577 -0.00060859 2.99558e-17)
(0.198651 -0.000731016 -3.99243e-17)
(0.198723 -0.000817808 0)
(0.198797 -0.000901682 -7.98388e-17)
(0.198881 -0.000983001 0)
(0.19898 -0.00104958 0)
(0.199079 -0.00110949 -7.99199e-17)
(0.199204 -0.00115691 0)
(0.19934 -0.00118588 8.00502e-17)
(0.199489 -0.00120105 -5.49477e-21)
(0.199628 -0.00120098 0)
(0.199749 -0.00119196 8.0359e-17)
(0.199865 -0.00117228 0)
(0.199988 -0.0011417 4.03112e-17)
(0.200126 -0.00109929 -5.0486e-17)
(0.200284 -0.0010568 -3.03561e-17)
(0.200452 -0.00103324 1.52105e-17)
(0.200608 -0.00104247 5.08205e-18)
(0.20076 -0.00107799 1.01891e-17)
(0.200924 -0.000959878 1.0215e-17)
(0.19846 -5.62143e-05 2.68348e-18)
(0.198543 -0.000187352 1.07193e-17)
(0.198529 -0.000293682 5.35368e-18)
(0.198603 -0.000398505 5.3484e-18)
(0.198644 -0.000521068 -7.482e-17)
(0.198701 -0.000598973 -1.59961e-21)
(0.198763 -0.000697921 -5.33859e-17)
(0.198851 -0.000783023 -3.20228e-17)
(0.19893 -0.000854593 4.26993e-17)
(0.199016 -0.000922832 0)
(0.199118 -0.00098078 -2.13615e-17)
(0.199216 -0.00102844 6.41225e-17)
(0.199331 -0.00106999 4.27832e-17)
(0.199453 -0.00109907 -1.07049e-16)
(0.199583 -0.0011247 -2.14343e-17)
(0.19971 -0.00114234 0)
(0.199827 -0.00115778 -4.29845e-17)
(0.199935 -0.00116826 5.38171e-17)
(0.200041 -0.00117091 3.23509e-17)
(0.200149 -0.00116895 4.32203e-17)
(0.200265 -0.00116556 1.08283e-17)
(0.200394 -0.00116198 -3.79872e-17)
(0.200534 -0.00115475 5.43973e-18)
(0.20068 -0.00112095 -1.09062e-17)
(0.200811 -0.0011043 -8.20203e-18)
(0.19853 -5.60445e-05 -5.7422e-18)
(0.198601 -0.00018252 2.86731e-18)
(0.198589 -0.000293979 0)
(0.198637 -0.00039846 -1.14428e-17)
(0.198682 -0.000517687 2.28657e-17)
(0.198727 -0.000608604 -6.85604e-17)
(0.19878 -0.000704403 7.99615e-17)
(0.198856 -0.000796966 4.5683e-17)
(0.198934 -0.000877166 2.28401e-17)
(0.199015 -0.000950964 -2.2843e-17)
(0.19911 -0.00101814 -7.76709e-22)
(0.199206 -0.00107582 2.28652e-17)
(0.199312 -0.00112676 -9.15393e-17)
(0.199427 -0.00116913 2.29058e-17)
(0.199552 -0.00120484 8.29228e-22)
(0.19968 -0.00123437 -2.29611e-17)
(0.199808 -0.00125785 2.2999e-17)
(0.19993 -0.00127333 -4.60763e-17)
(0.200049 -0.00127991 -5.77019e-17)
(0.200166 -0.00127841 6.9377e-17)
(0.200289 -0.0012673 -2.31745e-17)
(0.200418 -0.00124578 3.48455e-17)
(0.200553 -0.00121485 0)
(0.200684 -0.0011792 2.91904e-18)
(0.200804 -0.00114945 2.92689e-18)
(0.198472 -5.92302e-05 3.07183e-18)
(0.198534 -0.000186794 3.06722e-18)
(0.198528 -0.000306039 -1.22532e-17)
(0.198563 -0.000417401 6.12029e-18)
(0.198609 -0.000540543 2.44613e-17)
(0.198654 -0.000644902 9.77824e-17)
(0.198703 -0.000747712 -1.09953e-16)
(0.198777 -0.000847888 1.22144e-17)
(0.198858 -0.000939372 -4.8854e-17)
(0.198942 -0.00102236 0)
(0.199038 -0.00109794 2.44417e-17)
(0.19914 -0.00116494 -2.44565e-17)
(0.19925 -0.00122289 0)
(0.199371 -0.00127163 -2.44995e-17)
(0.199502 -0.00131107 2.45321e-17)
(0.199642 -0.00134142 0)
(0.199785 -0.00136255 4.9202e-17)
(0.199927 -0.00137312 1.23226e-17)
(0.200065 -0.0013724 3.70394e-17)
(0.2002 -0.00136093 -9.89859e-17)
(0.200334 -0.00133972 -2.48024e-17)
(0.200468 -0.00131091 6.21542e-18)
(0.200599 -0.00127821 -1.24631e-17)
(0.200723 -0.00124605 3.1246e-18)
(0.200841 -0.00121217 4.5608e-23)
(0.198364 -6.40187e-05 0)
(0.198425 -0.000196122 9.84321e-18)
(0.198427 -0.000324218 9.83068e-18)
(0.198462 -0.000443097 -6.54689e-18)
(0.198512 -0.000571246 -5.23329e-17)
(0.198565 -0.0006853 1.32684e-21)
(0.19862 -0.000795164 5.22709e-17)
(0.198696 -0.000900336 0)
(0.198786 -0.000998271 5.22549e-17)
(0.198879 -0.0010871 5.22688e-17)
(0.198983 -0.00116683 1.04573e-16)
(0.199095 -0.00123777 0)
(0.199213 -0.00129852 0)
(0.199342 -0.00134888 0)
(0.19948 -0.00138887 -1.0496e-16)
(0.199627 -0.00141884 -5.25583e-17)
(0.199779 -0.00143875 -5.26404e-17)
(0.199932 -0.00144769 0)
(0.200082 -0.0014456 -5.28442e-17)
(0.200229 -0.00143317 2.04236e-22)
(0.200372 -0.00141207 5.30873e-17)
(0.200511 -0.00138447 -6.65194e-18)
(0.200645 -0.00135258 1.00046e-17)
(0.200773 -0.00131679 -1.67208e-17)
(0.200893 -0.00127559 -2.97875e-33)
(0.198271 -6.8327e-05 0)
(0.198331 -0.000205874 -1.40402e-17)
(0.198342 -0.000341803 0)
(0.198379 -0.000467486 -2.80131e-17)
(0.198433 -0.000599616 2.79845e-17)
(0.198494 -0.000721043 -4.1945e-17)
(0.198557 -0.000836533 -1.39764e-17)
(0.198636 -0.000945596 0)
(0.198732 -0.00104785 0)
(0.198835 -0.00114116 -1.25778e-16)
(0.198945 -0.00122448 -2.79609e-17)
(0.199065 -0.00129865 -1.39896e-17)
(0.199191 -0.00136249 0)
(0.199325 -0.00141552 -1.40158e-17)
(0.199467 -0.00145805 1.4034e-16)
(0.199618 -0.00149027 4.21655e-17)
(0.199773 -0.00151215 0)
(0.199932 -0.00152314 0)
(0.20009 -0.00152301 -1.4134e-17)
(0.200245 -0.00151255 7.08256e-17)
(0.200397 -0.00149267 -2.84011e-17)
(0.200544 -0.00146467 2.84776e-17)
(0.200685 -0.00142951 0)
(0.200819 -0.00138758 1.43195e-17)
(0.200945 -0.00133883 0)
(0.198194 -7.22769e-05 3.75991e-18)
(0.198253 -0.000215292 -1.50164e-17)
(0.19827 -0.000358233 0)
(0.198307 -0.000490599 -6.10049e-22)
(0.198364 -0.000627022 -2.99307e-17)
(0.19843 -0.000755152 0)
(0.198498 -0.000876622 -2.98976e-17)
(0.19858 -0.000990552 1.49432e-17)
(0.19868 -0.00109758 -1.49429e-17)
(0.198789 -0.00119617 4.48376e-17)
(0.198905 -0.00128459 1.49524e-17)
(0.19903 -0.00136323 5.98482e-17)
(0.199163 -0.0014316 0)
(0.199302 -0.00148901 -5.99662e-17)
(0.199449 -0.00153541 -4.50334e-17)
(0.199603 -0.00157085 -1.50345e-17)
(0.199763 -0.00159513 -1.50597e-17)
(0.199926 -0.00160782 1.50897e-17)
(0.20009 -0.00160877 3.02463e-17)
(0.200254 -0.00159844 0)
(0.200414 -0.00157732 3.03897e-17)
(0.20057 -0.00154653 -1.78187e-22)
(0.200719 -0.00150694 0)
(0.20086 -0.00145934 1.53241e-17)
(0.20099 -0.00140404 3.84305e-18)
(0.198116 -7.60449e-05 -1.00547e-17)
(0.198172 -0.000224956 1.807e-17)
(0.198194 -0.000375003 0)
(0.198231 -0.000514614 3.20396e-17)
(0.198289 -0.000656397 5.60154e-17)
(0.198359 -0.000791486 5.59745e-17)
(0.198433 -0.000919709 1.59846e-17)
(0.198518 -0.00103972 1.59812e-17)
(0.19862 -0.00115252 6.39247e-17)
(0.198734 -0.00125694 -5.39556e-22)
(0.198857 -0.00135118 -5.89157e-22)
(0.198988 -0.00143515 -8.00117e-17)
(0.199127 -0.00150838 0)
(0.199273 -0.00157015 4.81051e-17)
(0.199426 -0.00162015 7.50043e-22)
(0.199586 -0.00165824 7.7696e-22)
(0.199751 -0.00168413 -6.44419e-17)
(0.19992 -0.00169752 1.6143e-17)
(0.200091 -0.00169834 -4.85326e-17)
(0.200262 -0.00168701 -8.10777e-18)
(0.20043 -0.00166392 -7.31608e-17)
(0.200593 -0.00163007 -3.26064e-17)
(0.200749 -0.00158643 0)
(0.200896 -0.0015337 -1.43523e-17)
(0.20103 -0.00147189 -6.17072e-18)
(0.198029 -7.97326e-05 4.3022e-18)
(0.198082 -0.000235289 -8.58995e-18)
(0.198109 -0.000392875 1.71534e-17)
(0.198147 -0.000540343 0)
(0.198206 -0.000688417 -2.56753e-17)
(0.19828 -0.000830721 -8.55104e-18)
(0.19836 -0.000966156 1.70939e-17)
(0.198449 -0.00109295 3.41766e-17)
(0.198555 -0.00121179 -8.54433e-17)
(0.198674 -0.00132225 6.83706e-17)
(0.198804 -0.00142242 -6.83991e-17)
(0.198942 -0.00151167 -6.84474e-17)
(0.199089 -0.00158952 0)
(0.199243 -0.00165527 6.8591e-17)
(0.199403 -0.00170846 6.86859e-17)
(0.19957 -0.00174881 -6.87999e-17)
(0.199742 -0.00177603 5.1695e-17)
(0.199917 -0.00178994 -3.45314e-17)
(0.200094 -0.00179057 1.73071e-17)
(0.200271 -0.00177815 -8.67472e-18)
(0.200445 -0.00175323 4.3493e-17)
(0.200615 -0.00171657 -3.48909e-17)
(0.200777 -0.00166892 -1.74976e-17)
(0.200929 -0.00161078 8.77758e-18)
(0.20107 -0.00154231 0)
(0.197935 -8.34225e-05 0)
(0.197986 -0.000246329 1.83743e-17)
(0.198018 -0.000411858 -4.5864e-17)
(0.198058 -0.000567602 9.16129e-18)
(0.198119 -0.000722638 3.6604e-17)
(0.198197 -0.0008723 -3.65767e-17)
(0.198282 -0.00101515 1.82796e-17)
(0.198377 -0.00114909 -7.30913e-17)
(0.198487 -0.00127438 1.8273e-17)
(0.198612 -0.00139089 -5.48277e-17)
(0.198748 -0.00149693 -1.82867e-17)
(0.198894 -0.00159149 5.48943e-17)
(0.199049 -0.00167395 3.66313e-17)
(0.199211 -0.00174364 -9.16888e-17)
(0.19938 -0.00180001 -1.83633e-17)
(0.199554 -0.00184269 9.19725e-17)
(0.199733 -0.00187142 1.84297e-17)
(0.199915 -0.00188601 7.38757e-17)
(0.200099 -0.00188656 -5.55406e-17)
(0.200282 -0.00187311 3.71213e-17)
(0.200463 -0.0018462 -3.72211e-17)
(0.200638 -0.00180646 4.66689e-17)
(0.200807 -0.00175446 2.80887e-17)
(0.200965 -0.00169063 -1.87889e-17)
(0.201111 -0.00161546 -9.42738e-18)
(0.197837 -8.72214e-05 0)
(0.197886 -0.000258059 -1.96486e-17)
(0.197922 -0.000431869 1.96172e-17)
(0.197965 -0.000596248 0)
(0.198028 -0.00075881 -3.91454e-17)
(0.198109 -0.00091614 0)
(0.198201 -0.00106664 -3.90874e-17)
(0.198301 -0.0012081 3.9076e-17)
(0.198416 -0.00134027 0)
(0.198547 -0.00146307 0)
(0.19869 -0.0015751 7.82034e-17)
(0.198844 -0.00167516 1.95647e-17)
(0.199007 -0.00176243 -3.91695e-17)
(0.199177 -0.0018362 1.96094e-17)
(0.199354 -0.00189588 -7.85529e-17)
(0.199537 -0.00194104 0)
(0.199724 -0.00197134 0)
(0.199914 -0.00198668 -3.95092e-17)
(0.200105 -0.00198689 3.96051e-17)
(0.200295 -0.00197227 0)
(0.200483 -0.00194304 3.98278e-17)
(0.200665 -0.00189988 0)
(0.20084 -0.00184324 -2.00372e-17)
(0.201005 -0.00177363 2.01061e-17)
(0.201157 -0.00169162 1.51341e-17)
(0.197735 -9.12384e-05 -5.26192e-18)
(0.197782 -0.000270541 1.31304e-17)
(0.197822 -0.000452994 -5.24441e-18)
(0.197868 -0.000626437 1.57128e-17)
(0.197933 -0.000797112 -1.04626e-17)
(0.198018 -0.000962506 0)
(0.198115 -0.00112102 1.04471e-17)
(0.198222 -0.00127038 -5.22205e-17)
(0.198343 -0.00140988 4.17793e-17)
(0.198479 -0.00153934 -2.08929e-17)
(0.198629 -0.00165759 6.27115e-17)
(0.19879 -0.00176333 0)
(0.198962 -0.00185559 0)
(0.199141 -0.00193356 0)
(0.199327 -0.00199661 -2.10006e-17)
(0.199519 -0.00204426 -2.1038e-17)
(0.199715 -0.00207612 -4.21622e-17)
(0.199913 -0.002092 3.169e-17)
(0.200112 -0.0020918 1.05901e-17)
(0.200311 -0.00207567 0)
(0.200506 -0.00204392 -1.06501e-17)
(0.200695 -0.00199707 -5.34241e-18)
(0.200877 -0.0019356 -5.36038e-18)
(0.201048 -0.00186004 -8.06769e-18)
(0.201207 -0.0017711 -8.09773e-18)
(0.197628 -9.5569e-05 -9.01468e-23)
(0.197673 -0.000283873 5.61702e-18)
(0.197717 -0.000475425 1.6824e-17)
(0.197766 -0.000658377 1.1199e-17)
(0.197833 -0.00083779 -1.11855e-17)
(0.197922 -0.0010117 4.47041e-17)
(0.198025 -0.00117859 3.35116e-17)
(0.198139 -0.00133623 6.70011e-17)
(0.198265 -0.00148348 -5.58281e-17)
(0.198407 -0.00161995 0)
(0.198564 -0.00174462 -6.70425e-17)
(0.198734 -0.0018562 4.47303e-17)
(0.198914 -0.00195356 -4.47768e-17)
(0.199102 -0.00203583 4.48365e-17)
(0.199298 -0.00210229 2.2453e-17)
(0.199499 -0.0021524 0)
(0.199705 -0.00218575 3.3814e-17)
(0.199912 -0.00220212 -2.25971e-17)
(0.200121 -0.0022014 -5.66378e-17)
(0.200328 -0.00218362 -4.54329e-17)
(0.200531 -0.00214916 -1.13923e-17)
(0.200729 -0.00209842 3.42927e-17)
(0.200918 -0.00203191 -2.8678e-17)
(0.201097 -0.00195024 5.75646e-18)
(0.201263 -0.00185409 2.56608e-33)
(0.197515 -0.00010027 3.00847e-18)
(0.197559 -0.000298148 -6.00534e-18)
(0.197606 -0.000499297 -1.79853e-17)
(0.197659 -0.000692232 -2.39449e-17)
(0.197729 -0.00088095 1.19586e-17)
(0.19782 -0.00106386 -7.16921e-17)
(0.197929 -0.00123952 -3.58217e-17)
(0.19805 -0.00140575 -4.7748e-17)
(0.198184 -0.00156112 4.77449e-17)
(0.198332 -0.00170496 -2.38775e-17)
(0.198496 -0.00183628 1.17499e-21)
(0.198674 -0.00195383 7.17301e-17)
(0.198863 -0.00205644 0)
(0.199061 -0.00214308 -2.39692e-17)
(0.199266 -0.00221302 -1.45938e-21)
(0.199478 -0.00226564 -2.40538e-17)
(0.199694 -0.0023005 -4.82099e-17)
(0.199911 -0.00231732 4.83273e-17)
(0.20013 -0.00231596 6.05701e-17)
(0.200346 -0.00229646 2.43001e-17)
(0.200559 -0.00225912 1.21876e-17)
(0.200765 -0.0022043 2.4455e-17)
(0.200963 -0.00213252 3.06806e-17)
(0.20115 -0.00204446 -6.15912e-18)
(0.201323 -0.00194083 -3.09162e-18)
(0.197396 -0.000105358 -6.43415e-18)
(0.197439 -0.000313416 3.21066e-18)
(0.197489 -0.000524688 0)
(0.197545 -0.000728066 2.55983e-17)
(0.197619 -0.000926659 0)
(0.197714 -0.00111906 0)
(0.197828 -0.00130389 1.27637e-17)
(0.197956 -0.00147904 3.82779e-17)
(0.198098 -0.00164287 -1.02072e-16)
(0.198254 -0.00179441 1.27617e-17)
(0.198425 -0.00193267 -6.38455e-17)
(0.198611 -0.0020564 -7.66752e-17)
(0.198809 -0.00216439 5.11739e-17)
(0.199017 -0.00225557 7.68689e-17)
(0.199233 -0.00232909 -1.28329e-17)
(0.199455 -0.0023843 6.42928e-17)
(0.199682 -0.00242069 1.03098e-16)
(0.19991 -0.00243796 -6.45964e-17)
(0.200139 -0.00243591 1.29553e-17)
(0.200366 -0.00241456 0)
(0.200589 -0.00237417 0)
(0.200805 -0.00231508 -2.6162e-17)
(0.201012 -0.00223779 0)
(0.201207 -0.00214303 3.29528e-18)
(0.201389 -0.00203164 3.30868e-18)
(0.197271 -0.000110843 3.43944e-18)
(0.197312 -0.000329699 0)
(0.197365 -0.000551637 -6.85187e-18)
(0.197426 -0.000765941 -1.36831e-17)
(0.197503 -0.000974965 -3.41641e-17)
(0.197602 -0.00117737 0)
(0.197722 -0.00137179 5.45738e-17)
(0.197857 -0.00155622 1.3638e-17)
(0.198007 -0.00172887 4.09107e-17)
(0.198171 -0.0018885 0)
(0.198351 -0.00203398 5.45935e-17)
(0.198545 -0.00216414 0)
(0.198753 -0.00227771 0)
(0.198971 -0.00237359 -5.47823e-17)
(0.199198 -0.00245083 0)
(0.199431 -0.00250872 -5.49874e-17)
(0.199669 -0.00254671 -6.88918e-17)
(0.199909 -0.0025644 1.38148e-17)
(0.200149 -0.0025616 -5.54143e-17)
(0.200387 -0.00253831 0)
(0.200621 -0.00249467 2.09147e-17)
(0.200847 -0.00243107 4.19786e-17)
(0.201064 -0.00234801 -7.02335e-18)
(0.201269 -0.00224626 0)
(0.201459 -0.00212676 -6.96399e-23)
(0.19714 -0.000116715 3.67718e-18)
(0.19718 -0.000347006 3.66928e-18)
(0.197235 -0.000580175 -3.6623e-18)
(0.1973 -0.000805913 2.925e-17)
(0.197381 -0.00102593 2.92122e-17)
(0.197485 -0.00123887 -2.91836e-17)
(0.19761 -0.00144336 -5.83253e-17)
(0.197752 -0.00163746 -5.83064e-17)
(0.19791 -0.00181928 5.83026e-17)
(0.198084 -0.00198734 0)
(0.198272 -0.00214044 -5.83486e-17)
(0.198476 -0.00227732 0)
(0.198693 -0.00239672 0)
(0.198922 -0.00249748 0)
(0.19916 -0.0025786 5.86606e-17)
(0.199405 -0.00263927 0)
(0.199655 -0.00267891 -5.89242e-17)
(0.199907 -0.00269704 5.90809e-17)
(0.200159 -0.00269344 5.92531e-17)
(0.200409 -0.00266805 2.97212e-17)
(0.200654 -0.00262102 -2.98246e-17)
(0.200892 -0.00255267 -2.99348e-17)
(0.20112 -0.00246357 -3.7565e-18)
(0.201335 -0.00235449 3.77236e-18)
(0.201534 -0.00222652 -7.57727e-18)
(0.197002 -0.000122968 1.60768e-22)
(0.19704 -0.000365352 3.92227e-18)
(0.197099 -0.000610342 -1.95733e-17)
(0.197167 -0.000848057 -3.1265e-17)
(0.197253 -0.00107964 -3.90286e-17)
(0.197361 -0.00130367 3.89868e-17)
(0.197492 -0.00151872 1.55835e-17)
(0.197642 -0.00172293 3.11543e-17)
(0.197809 -0.00191432 -1.09035e-16)
(0.197991 -0.00209123 0)
(0.19819 -0.00225231 6.23587e-17)
(0.198403 -0.00239625 -4.68122e-17)
(0.198631 -0.00252175 -9.37367e-17)
(0.198871 -0.0026276 1.56473e-17)
(0.199121 -0.00271276 -6.27031e-17)
(0.199378 -0.00277635 0)
(0.19964 -0.00281769 1.41729e-16)
(0.199905 -0.00283627 -9.47464e-17)
(0.20017 -0.00283181 1.58396e-17)
(0.200433 -0.00280421 -2.38373e-17)
(0.20069 -0.00275358 2.39219e-17)
(0.20094 -0.00268025 3.20178e-17)
(0.201179 -0.00258478 1.20556e-17)
(0.201404 -0.00246804 4.03587e-18)
(0.201614 -0.0023312 4.05398e-18)
(0.196856 -0.000129596 -4.20183e-18)
(0.196894 -0.000384748 8.38485e-18)
(0.196955 -0.000642178 8.36685e-18)
(0.197028 -0.000892444 2.5059e-17)
(0.197118 -0.00113619 3.33657e-17)
(0.197232 -0.00137189 3.33309e-17)
(0.197368 -0.00159806 0)
(0.197526 -0.00181285 -1.66462e-17)
(0.197702 -0.00201423 1.49809e-16)
(0.197894 -0.00220042 -1.66492e-17)
(0.198103 -0.00236988 8.32997e-17)
(0.198327 -0.00252123 1.334e-16)
(0.198566 -0.00265314 6.6783e-17)
(0.198817 -0.00276434 -6.68902e-17)
(0.199079 -0.00285373 -5.02641e-17)
(0.19935 -0.00292036 -1.67921e-17)
(0.199625 -0.00296347 -1.17839e-16)
(0.199903 -0.00298251 1.68809e-17)
(0.200182 -0.00297712 0)
(0.200458 -0.00294717 -3.39828e-17)
(0.200728 -0.00289275 -3.41086e-17)
(0.20099 -0.00281419 -4.28039e-17)
(0.201241 -0.00271207 8.59667e-18)
(0.201478 -0.00258732 -8.63453e-18)
(0.201698 -0.00244118 0)
(0.196702 -0.000136599 0)
(0.19674 -0.000405214 -4.48042e-18)
(0.196803 -0.000675743 2.23567e-17)
(0.196881 -0.000939179 1.78538e-17)
(0.196976 -0.00119572 0)
(0.197095 -0.00144369 -3.56158e-17)
(0.197238 -0.00168155 1.77942e-17)
(0.197404 -0.00190744 -8.82877e-22)
(0.197589 -0.00211929 -8.89274e-17)
(0.197792 -0.00231519 5.33725e-17)
(0.198011 -0.00249346 -7.12035e-17)
(0.198247 -0.00265262 1.78205e-17)
(0.198497 -0.00279128 0)
(0.198761 -0.0029081 1.78684e-17)
(0.199036 -0.00300193 7.16205e-17)
(0.19932 -0.00307173 -8.97323e-17)
(0.199609 -0.00311671 5.39801e-17)
(0.199902 -0.0031362 -3.609e-17)
(0.200194 -0.00312982 1.81046e-17)
(0.200484 -0.00309739 3.63352e-17)
(0.200768 -0.00303897 0)
(0.201044 -0.00295491 0)
(0.201308 -0.00284581 -1.37929e-17)
(0.201557 -0.00271269 -4.61848e-18)
(0.201788 -0.00255681 -4.64059e-18)
(0.196541 -0.000143973 4.80057e-18)
(0.196578 -0.000426784 -1.43665e-17)
(0.196643 -0.000711104 -8.90699e-23)
(0.196726 -0.000988361 -2.38469e-17)
(0.196827 -0.00125835 0)
(0.196951 -0.00151925 3.80571e-17)
(0.197101 -0.00176942 0)
(0.197275 -0.00200697 0)
(0.197469 -0.0022298 -3.80067e-17)
(0.197683 -0.00243589 -9.5038e-17)
(0.197914 -0.00262343 7.60805e-17)
(0.198162 -0.00279082 -1.14232e-16)
(0.198425 -0.00293657 3.81288e-17)
(0.198702 -0.00305931 3.81917e-17)
(0.198991 -0.00315779 -2.86878e-22)
(0.199289 -0.00323093 5.75375e-17)
(0.199593 -0.00327782 3.84627e-17)
(0.1999 -0.00329778 0)
(0.200207 -0.00329033 0)
(0.200512 -0.00325528 -3.88468e-17)
(0.200811 -0.00319267 0)
(0.201101 -0.00310285 -4.89502e-18)
(0.201378 -0.00298646 3.85195e-22)
(0.20164 -0.00284456 2.47022e-17)
(0.201884 -0.0026785 1.48945e-17)
(0.19637 -0.000151729 -5.13004e-18)
(0.196407 -0.000449492 1.27931e-17)
(0.196475 -0.00074834 0)
(0.196562 -0.00104012 1.0193e-17)
(0.196669 -0.00132425 1.01765e-17)
(0.1968 -0.00159877 -9.14809e-17)
(0.196957 -0.0018619 5.0782e-17)
(0.197139 -0.00211173 -2.03023e-17)
(0.197344 -0.00234608 6.09037e-17)
(0.197569 -0.00256287 0)
(0.197813 -0.00276016 -4.06395e-17)
(0.198073 -0.0029362 -2.03392e-17)
(0.19835 -0.00308944 4.07356e-17)
(0.198641 -0.0032184 -2.04039e-17)
(0.198944 -0.00332178 4.08918e-17)
(0.199256 -0.0033984 0)
(0.199576 -0.0034473 -2.05532e-17)
(0.199898 -0.00346772 -2.06169e-17)
(0.200222 -0.00345915 -3.10304e-17)
(0.200542 -0.00342133 7.26738e-17)
(0.200856 -0.00335432 1.04233e-17)
(0.201161 -0.00325846 -3.14076e-17)
(0.201453 -0.00313445 0)
(0.201729 -0.00298337 -7.92658e-18)
(0.201985 -0.00280667 -1.85896e-17)
(0.196191 -0.000159878 5.64789e-23)
(0.196228 -0.000473388 -2.73404e-18)
(0.196298 -0.00078754 2.18222e-17)
(0.19639 -0.00109459 -1.08894e-17)
(0.196503 -0.0013936 -1.08722e-17)
(0.196641 -0.00168247 8.68698e-17)
(0.196806 -0.00195927 -4.33973e-17)
(0.196997 -0.00222201 0)
(0.197212 -0.00246849 2.16864e-17)
(0.197449 -0.00269652 -2.16931e-17)
(0.197705 -0.00290404 4.34152e-17)
(0.19798 -0.00308921 2.17292e-17)
(0.198271 -0.00325032 -4.35211e-17)
(0.198577 -0.00338583 2.18004e-17)
(0.198895 -0.00349434 -4.36918e-17)
(0.199223 -0.00357462 -2.18988e-17)
(0.199558 -0.00362561 2.19642e-17)
(0.199897 -0.0036465 0)
(0.200237 -0.00363673 4.42215e-17)
(0.200574 -0.00359602 -8.87833e-17)
(0.200904 -0.0035244 -1.11437e-17)
(0.201225 -0.00342224 1.11953e-17)
(0.201532 -0.00329027 -2.2494e-17)
(0.201822 -0.0031296 -2.82575e-18)
(0.202093 -0.00294177 1.13636e-17)
(0.196002 -0.00016843 -2.92918e-18)
(0.196039 -0.000498526 0)
(0.196112 -0.000828815 -2.33131e-17)
(0.196209 -0.00115192 0)
(0.196329 -0.0014666 0)
(0.196474 -0.00177057 -9.27934e-17)
(0.196647 -0.00206177 -1.15888e-17)
(0.196847 -0.00233813 -3.47508e-17)
(0.197073 -0.00259737 -4.63295e-17)
(0.197322 -0.00283722 2.317e-17)
(0.197592 -0.00305551 -2.31862e-17)
(0.197881 -0.00325026 -2.32104e-17)
(0.198187 -0.00341966 4.64898e-17)
(0.198509 -0.00356206 -2.32887e-17)
(0.198844 -0.00367598 -2.33386e-17)
(0.199188 -0.00376008 2.34001e-17)
(0.199541 -0.00381326 4.69354e-17)
(0.199897 -0.00383465 5.8862e-17)
(0.200254 -0.00382363 -1.1816e-17)
(0.200608 -0.00377988 9.48971e-17)
(0.200956 -0.00370344 0)
(0.201293 -0.0035947 2.39365e-17)
(0.201616 -0.00345441 2.40539e-17)
(0.201922 -0.00328374 0)
(0.202207 -0.00308427 -3.0388e-18)
(0.195804 -0.000177405 3.12949e-18)
(0.195841 -0.000524976 1.24839e-17)
(0.195916 -0.000872271 0)
(0.196018 -0.00121229 0)
(0.196144 -0.00154345 -1.2405e-17)
(0.196298 -0.00186334 7.43342e-17)
(0.196479 -0.00216973 -6.18926e-17)
(0.196689 -0.00246044 4.94854e-17)
(0.196926 -0.00273311 3.71105e-17)
(0.197188 -0.00298539 1.23746e-17)
(0.197473 -0.00321499 -3.71472e-17)
(0.197777 -0.00341982 -1.23966e-17)
(0.1981 -0.00359795 0)
(0.198438 -0.00374759 -1.24373e-17)
(0.19879 -0.00386717 6.23307e-17)
(0.199152 -0.0039553 1.24987e-17)
(0.199523 -0.00401078 -6.26855e-17)
(0.199897 -0.00403267 -5.03177e-17)
(0.200273 -0.00402034 -1.26262e-17)
(0.200645 -0.00397344 -2.53568e-17)
(0.201011 -0.00389199 -3.82032e-17)
(0.201366 -0.00377639 0)
(0.201706 -0.00362742 0)
(0.202028 -0.00344629 -1.29279e-17)
(0.202329 -0.00323465 -3.25015e-18)
(0.195594 -0.00018683 0)
(0.195632 -0.0005528 -1.66695e-17)
(0.19571 -0.000918046 3.32551e-18)
(0.195817 -0.00127585 0)
(0.195951 -0.00162439 -3.97506e-17)
(0.196112 -0.00196104 1.3232e-17)
(0.196303 -0.00228344 5.28755e-17)
(0.196523 -0.00258927 0)
(0.196772 -0.0028761 -3.96338e-17)
(0.197048 -0.00314145 -1.32152e-17)
(0.197347 -0.00338295 6.61202e-17)
(0.197668 -0.00359838 -1.32394e-17)
(0.198007 -0.00378566 0)
(0.198363 -0.00394292 -1.32841e-17)
(0.198734 -0.00406847 -3.9947e-17)
(0.199115 -0.00416082 -1.33514e-17)
(0.199504 -0.00421872 6.69697e-17)
(0.199898 -0.00424117 0)
(0.200293 -0.00422748 0)
(0.200684 -0.00417729 1.35485e-17)
(0.201069 -0.00409062 1.3611e-17)
(0.201443 -0.00396785 0)
(0.201802 -0.00380983 3.43711e-18)
(0.202141 -0.0036178 1.03686e-17)
(0.202458 -0.00339345 6.95238e-18)
(0.195374 -0.000196734 0)
(0.195412 -0.000582079 1.42457e-17)
(0.195493 -0.000966258 2.13119e-17)
(0.195605 -0.00134281 -7.08794e-18)
(0.195746 -0.00170964 7.07478e-17)
(0.195916 -0.00206396 -1.41305e-17)
(0.196117 -0.00240323 -4.23496e-17)
(0.196349 -0.00272501 7.05449e-17)
(0.19661 -0.00302674 5.64248e-17)
(0.1969 -0.00330586 0)
(0.197215 -0.00355988 -5.64832e-17)
(0.197552 -0.00378644 0)
(0.19791 -0.00398335 0)
(0.198285 -0.0041486 0)
(0.198674 -0.00428041 5.68867e-17)
(0.199076 -0.00437721 0)
(0.199485 -0.00443766 -5.72296e-17)
(0.199899 -0.00446071 -4.30784e-17)
(0.200315 -0.00444563 1.44154e-17)
(0.200727 -0.00439203 -1.44781e-17)
(0.201132 -0.00429992 -1.45455e-17)
(0.201525 -0.00416971 -7.30978e-18)
(0.201903 -0.00400226 -7.34895e-18)
(0.202261 -0.00379885 -1.47824e-17)
(0.202595 -0.00356122 -3.71783e-18)
(0.195142 -0.00020714 3.81549e-18)
(0.19518 -0.000612907 -1.14108e-17)
(0.195264 -0.00101706 -1.89661e-17)
(0.195382 -0.00141336 0)
(0.195531 -0.00179945 -3.02187e-17)
(0.19571 -0.00217239 0)
(0.195922 -0.00252945 7.53613e-17)
(0.196165 -0.00286803 -7.53178e-17)
(0.19644 -0.00318547 0)
(0.196744 -0.00347908 -1.50657e-17)
(0.197076 -0.00374626 -3.01566e-17)
(0.197431 -0.00398452 -3.01909e-17)
(0.197807 -0.00419155 3.02396e-17)
(0.198202 -0.00436522 -3.03016e-17)
(0.198612 -0.00450362 3.03765e-17)
(0.199034 -0.0046051 -1.5233e-17)
(0.199465 -0.00466824 0)
(0.199901 -0.00469194 4.60174e-17)
(0.200338 -0.00467542 -4.62038e-17)
(0.200772 -0.00461829 0)
(0.201198 -0.00452052 3.10918e-17)
(0.201613 -0.00438256 0)
(0.202011 -0.00420528 1.17852e-17)
(0.202388 -0.00399 1.97573e-17)
(0.202741 -0.00373851 0)
(0.194897 -0.00021809 -4.07498e-18)
(0.194936 -0.00064537 -8.12498e-18)
(0.195023 -0.0010706 0)
(0.195147 -0.00148771 0)
(0.195304 -0.00189409 -2.42013e-17)
(0.195493 -0.00228664 2.41644e-17)
(0.195716 -0.00266244 -1.60919e-17)
(0.195972 -0.00301874 3.21648e-17)
(0.196261 -0.00335273 4.82415e-17)
(0.196581 -0.0036616 1.60845e-17)
(0.196929 -0.00394263 1.12679e-16)
(0.197303 -0.00419319 -6.44674e-17)
(0.197699 -0.00441085 0)
(0.198115 -0.00459336 6.47098e-17)
(0.198547 -0.0047387 -8.10914e-17)
(0.198991 -0.00484511 1.62681e-17)
(0.199445 -0.0049111 -1.6321e-17)
(0.199904 -0.00493552 -3.27667e-17)
(0.200363 -0.00491755 4.93619e-17)
(0.20082 -0.00485675 -4.13225e-17)
(0.201269 -0.00475312 4.15301e-17)
(0.201705 -0.0046071 0)
(0.202125 -0.00441958 0)
(0.202523 -0.00419191 8.44877e-18)
(0.202896 -0.00392596 0)
(0.194639 -0.000229616 -4.35231e-18)
(0.19468 -0.00067957 8.67579e-18)
(0.19477 -0.00112704 -1.73021e-17)
(0.1949 -0.00156606 1.72598e-17)
(0.195065 -0.00199383 4.30597e-17)
(0.195265 -0.00240704 -5.15903e-17)
(0.195499 -0.00280261 8.58963e-18)
(0.195769 -0.00317759 -6.86718e-17)
(0.196073 -0.003529 -6.86607e-17)
(0.196409 -0.00385394 -6.86845e-17)
(0.196775 -0.00414954 -6.87344e-17)
(0.197168 -0.00441304 8.6023e-17)
(0.197585 -0.00464188 -3.44692e-17)
(0.198023 -0.00483368 -5.18129e-17)
(0.198478 -0.00498631 6.9267e-17)
(0.198946 -0.00509791 6.94801e-17)
(0.199423 -0.00516693 0)
(0.199906 -0.00519213 6.99956e-17)
(0.20039 -0.00517267 8.78688e-18)