/*--------------------------------*- C++ -*----------------------------------*\
| =========                 |                                                 |
| \\      /  F ield         | OpenFOAM: The Open Source CFD Toolbox           |
|  \\    /   O peration     | Version:  v1912                                 |
|   \\  /    A nd           | Website:  www.openfoam.com                      |
|    \\/     M anipulation  |                                                 |
\*---------------------------------------------------------------------------*/
FoamFile
{
    version     2.0;
    format      ascii;
    class       volScalarField;
    location    "1000";
    object      V;
}
// * * * * * * * * * * * * * * * * * * * * * * * * * * * * * * * * * * * * * //

dimensions      [0 3 0 0 0 0 0];


internalField   nonuniform List<scalar> 
9900
(
0.0420974
0.0420967
0.0420949
0.0420963
0.0420962
0.0420926
0.0420939
0.0420957
0.0420949
0.0420973
0.0420981
0.0420972
0.0420998
0.0420972
0.0420981
0.0420973
0.0420949
0.0420957
0.0420939
0.0420926
0.0420962
0.0420963
0.0420949
0.0420967
0.0420974
0.0392832
0.039286
0.0392848
0.0392827
0.0392848
0.0392865
0.0392865
0.039284
0.0392838
0.0392853
0.0392806
0.0392817
0.0392883
0.0392817
0.0392806
0.0392853
0.0392838
0.039284
0.0392865
0.0392865
0.0392848
0.0392827
0.0392848
0.039286
0.0392832
0.0366606
0.0366611
0.0366642
0.0366637
0.0366614
0.0366607
0.0366626
0.0366627
0.0366633
0.0366637
0.0366632
0.0366608
0.0366597
0.0366608
0.0366632
0.0366637
0.0366633
0.0366627
0.0366626
0.0366607
0.0366614
0.0366637
0.0366642
0.0366611
0.0366606
0.0342152
0.0342139
0.0342101
0.0342126
0.0342157
0.0342147
0.0342134
0.0342134
0.0342128
0.0342136
0.0342131
0.0342144
0.0342144
0.0342144
0.0342131
0.0342136
0.0342128
0.0342134
0.0342134
0.0342147
0.0342157
0.0342126
0.0342101
0.0342139
0.0342152
0.0319287
0.0319283
0.0319295
0.0319296
0.0319286
0.0319272
0.0319273
0.0319267
0.0319277
0.0319268
0.0319274
0.031931
0.0319276
0.031931
0.0319274
0.0319268
0.0319277
0.0319267
0.0319273
0.0319272
0.0319286
0.0319296
0.0319295
0.0319283
0.0319287
0.0297944
0.0297925
0.0297935
0.0297938
0.0297923
0.0297941
0.0297956
0.0297933
0.0297925
0.0297928
0.0297951
0.0297935
0.0297914
0.0297935
0.0297951
0.0297928
0.0297925
0.0297933
0.0297956
0.0297941
0.0297923
0.0297938
0.0297935
0.0297925
0.0297944
0.0278034
0.0278054
0.0278034
0.0278025
0.0278034
0.0278044
0.0278048
0.0278064
0.0278055
0.0278045
0.0278048
0.0278043
0.0278015
0.0278043
0.0278048
0.0278045
0.0278055
0.0278064
0.0278048
0.0278044
0.0278034
0.0278025
0.0278034
0.0278054
0.0278034
0.0259449
0.0259432
0.0259439
0.0259467
0.025948
0.0259456
0.0259428
0.025942
0.0259427
0.0259449
0.025944
0.0259436
0.0259418
0.0259436
0.025944
0.0259449
0.0259427
0.025942
0.0259428
0.0259456
0.025948
0.0259467
0.0259439
0.0259432
0.0259449
0.0242087
0.0242107
0.0242119
0.0242117
0.0242111
0.0242108
0.0242119
0.0242116
0.024213
0.024211
0.0242103
0.0242121
0.0242139
0.0242121
0.0242103
0.024211
0.024213
0.0242116
0.0242119
0.0242108
0.0242111
0.0242117
0.0242119
0.0242107
0.0242087
0.0225944
0.0225932
0.0225927
0.0225922
0.0225904
0.0225913
0.0225918
0.022593
0.0225929
0.0225914
0.0225927
0.022592
0.0225924
0.022592
0.0225927
0.0225914
0.0225929
0.022593
0.0225918
0.0225913
0.0225904
0.0225922
0.0225927
0.0225932
0.0225944
0.0210795
0.0210798
0.02108
0.0210795
0.0210816
0.0210832
0.0210816
0.0210813
0.0210795
0.0210812
0.021082
0.0210822
0.0210823
0.0210822
0.021082
0.0210812
0.0210795
0.0210813
0.0210816
0.0210832
0.0210816
0.0210795
0.02108
0.0210798
0.0210795
0.019673
0.0196727
0.0196717
0.0196715
0.0196716
0.0196698
0.0196697
0.0196717
0.019672
0.0196716
0.0196718
0.0196717
0.0196715
0.0196717
0.0196718
0.0196716
0.019672
0.0196717
0.0196697
0.0196698
0.0196716
0.0196715
0.0196717
0.0196727
0.019673
0.0183562
0.0183552
0.0183555
0.0183559
0.018356
0.0183559
0.0183553
0.0183546
0.0183543
0.0183554
0.0183555
0.018354
0.0183552
0.018354
0.0183555
0.0183554
0.0183543
0.0183546
0.0183553
0.0183559
0.018356
0.0183559
0.0183555
0.0183552
0.0183562
0.0171259
0.0171266
0.017128
0.0171271
0.0171257
0.0171262
0.0171268
0.0171279
0.0171269
0.0171266
0.0171272
0.0171269
0.0171269
0.0171269
0.0171272
0.0171266
0.0171269
0.0171279
0.0171268
0.0171262
0.0171257
0.0171271
0.017128
0.0171266
0.0171259
0.0159789
0.0159794
0.0159801
0.01598
0.0159816
0.0159804
0.0159803
0.0159809
0.0159806
0.0159811
0.0159805
0.0159805
0.0159805
0.0159805
0.0159805
0.0159811
0.0159806
0.0159809
0.0159803
0.0159804
0.0159816
0.01598
0.0159801
0.0159794
0.0159789
0.0149104
0.0149106
0.0149109
0.01491
0.0149091
0.0149105
0.0149108
0.0149107
0.0149111
0.0149105
0.0149108
0.0149109
0.0149107
0.0149109
0.0149108
0.0149105
0.0149111
0.0149107
0.0149108
0.0149105
0.0149091
0.01491
0.0149109
0.0149106
0.0149104
0.0139138
0.013914
0.0139119
0.013911
0.0139127
0.0139125
0.0139131
0.0139132
0.0139116
0.0139121
0.0139121
0.0139122
0.0139121
0.0139122
0.0139121
0.0139121
0.0139116
0.0139132
0.0139131
0.0139125
0.0139127
0.013911
0.0139119
0.013914
0.0139138
0.0129798
0.0129799
0.0129793
0.0129803
0.0129815
0.0129812
0.0129798
0.0129795
0.0129804
0.0129804
0.0129804
0.0129805
0.0129806
0.0129805
0.0129804
0.0129804
0.0129804
0.0129795
0.0129798
0.0129812
0.0129815
0.0129803
0.0129793
0.0129799
0.0129798
0.0121115
0.0121115
0.0121108
0.0121117
0.012111
0.0121101
0.0121107
0.0121107
0.0121109
0.0121107
0.0121106
0.0121107
0.0121109
0.0121107
0.0121106
0.0121107
0.0121109
0.0121107
0.0121107
0.0121101
0.012111
0.0121117
0.0121108
0.0121115
0.0121115
0.0112989
0.0112987
0.0112995
0.0112996
0.0112991
0.0112991
0.0112993
0.0112992
0.0112991
0.0112992
0.0112991
0.0112992
0.0112993
0.0112992
0.0112991
0.0112992
0.0112991
0.0112992
0.0112993
0.0112991
0.0112991
0.0112996
0.0112995
0.0112987
0.0112989
0.0105416
0.0105418
0.0105419
0.0105419
0.0105418
0.0105417
0.0105417
0.0105417
0.0105419
0.0105418
0.0105416
0.0105415
0.0105416
0.0105415
0.0105416
0.0105418
0.0105419
0.0105417
0.0105417
0.0105417
0.0105418
0.0105419
0.0105419
0.0105418
0.0105416
0.00983493
0.00983478
0.0098348
0.00983499
0.00983489
0.00983505
0.00983501
0.0098348
0.0098348
0.00983495
0.00983508
0.0098351
0.00983492
0.0098351
0.00983508
0.00983495
0.0098348
0.0098348
0.00983501
0.00983505
0.00983489
0.00983499
0.0098348
0.00983478
0.00983493
0.00917506
0.00917512
0.00917502
0.00917509
0.00917501
0.00917515
0.00917514
0.0091752
0.00917527
0.00917521
0.00917505
0.0091752
0.00917522
0.0091752
0.00917505
0.00917521
0.00917527
0.0091752
0.00917514
0.00917515
0.00917501
0.00917509
0.00917502
0.00917512
0.00917506
0.00855974
0.00855975
0.00855964
0.00855962
0.00855967
0.00855979
0.00855958
0.0085595
0.00855948
0.00855953
0.00855951
0.00855955
0.00855961
0.00855955
0.00855951
0.00855953
0.00855948
0.0085595
0.00855958
0.00855979
0.00855967
0.00855962
0.00855964
0.00855975
0.00855974
0.00798511
0.00798504
0.00798501
0.00798521
0.00798519
0.0079851
0.00798512
0.0079851
0.00798515
0.00798521
0.00798508
0.00798519
0.00798511
0.00798519
0.00798508
0.00798521
0.00798515
0.0079851
0.00798512
0.0079851
0.00798519
0.00798521
0.00798501
0.00798504
0.00798511
0.0074489
0.00744885
0.00744898
0.00744907
0.00744897
0.00744885
0.00744894
0.00744891
0.0074489
0.007449
0.00744896
0.00744889
0.00744878
0.00744889
0.00744896
0.007449
0.0074489
0.00744891
0.00744894
0.00744885
0.00744897
0.00744907
0.00744898
0.00744885
0.0074489
0.00694874
0.00694874
0.0069487
0.00694869
0.00694884
0.00694869
0.00694873
0.00694879
0.00694873
0.00694873
0.00694871
0.0069489
0.00694892
0.0069489
0.00694871
0.00694873
0.00694873
0.00694879
0.00694873
0.00694869
0.00694884
0.00694869
0.0069487
0.00694874
0.00694874
0.00648177
0.00648194
0.00648185
0.00648162
0.00648184
0.00648187
0.00648185
0.0064818
0.00648173
0.00648198
0.00648182
0.00648171
0.00648175
0.00648171
0.00648182
0.00648198
0.00648173
0.0064818
0.00648185
0.00648187
0.00648184
0.00648162
0.00648185
0.00648194
0.00648177
0.00604617
0.00604608
0.00604619
0.00604618
0.00604619
0.00604629
0.0060462
0.00604623
0.00604626
0.00604626
0.00604619
0.00604619
0.00604625
0.00604619
0.00604619
0.00604626
0.00604626
0.00604623
0.0060462
0.00604629
0.00604619
0.00604618
0.00604619
0.00604608
0.00604617
0.00563973
0.00563977
0.00563974
0.00563976
0.00563976
0.00563968
0.00563956
0.00563969
0.00563964
0.00563955
0.00563965
0.00563964
0.00563972
0.00563964
0.00563965
0.00563955
0.00563964
0.00563969
0.00563956
0.00563968
0.00563976
0.00563976
0.00563974
0.00563977
0.00563973
0.00526042
0.00526038
0.0052603
0.00526029
0.00526016
0.00526033
0.00526035
0.00526033
0.0052603
0.00526029
0.00526031
0.0052603
0.00526022
0.0052603
0.00526031
0.00526029
0.0052603
0.00526033
0.00526035
0.00526033
0.00526016
0.00526029
0.0052603
0.00526038
0.00526042
0.00490632
0.00490633
0.00490629
0.00490637
0.00490647
0.00490634
0.0049063
0.00490632
0.00490642
0.00490644
0.0049064
0.00490639
0.00490628
0.00490639
0.0049064
0.00490644
0.00490642
0.00490632
0.0049063
0.00490634
0.00490647
0.00490637
0.00490629
0.00490633
0.00490632
0.00457606
0.00457604
0.00457613
0.00457614
0.00457607
0.00457607
0.00457615
0.00457613
0.00457614
0.00457608
0.00457605
0.00457605
0.00457608
0.00457605
0.00457605
0.00457608
0.00457614
0.00457613
0.00457615
0.00457607
0.00457607
0.00457614
0.00457613
0.00457604
0.00457606
0.00426783
0.00426781
0.00426783
0.0042679
0.00426782
0.00426785
0.00426781
0.00426782
0.00426785
0.00426779
0.00426791
0.00426791
0.0042678
0.00426791
0.00426791
0.00426779
0.00426785
0.00426782
0.00426781
0.00426785
0.00426782
0.0042679
0.00426783
0.00426781
0.00426783
0.00398025
0.00398025
0.00398029
0.0039802
0.0039802
0.00398034
0.00398028
0.00398029
0.0039802
0.00398026
0.00398027
0.00398032
0.00398027
0.00398032
0.00398027
0.00398026
0.0039802
0.00398029
0.00398028
0.00398034
0.0039802
0.0039802
0.00398029
0.00398025
0.00398025
0.00371199
0.00371203
0.00371194
0.00371202
0.0037119
0.00371191
0.00371189
0.00371187
0.00371188
0.00371194
0.00371196
0.00371202
0.00371194
0.00371202
0.00371196
0.00371194
0.00371188
0.00371187
0.00371189
0.00371191
0.0037119
0.00371202
0.00371194
0.00371203
0.00371199
0.00346158
0.00346158
0.00346158
0.00346163
0.00346163
0.00346167
0.00346166
0.00346161
0.00346154
0.00346161
0.00346172
0.00346162
0.00346145
0.00346162
0.00346172
0.00346161
0.00346154
0.00346161
0.00346166
0.00346167
0.00346163
0.00346163
0.00346158
0.00346158
0.00346158
0.00322805
0.00322802
0.00322807
0.003228
0.00322793
0.00322801
0.00322801
0.00322808
0.00322807
0.00322805
0.00322798
0.00322804
0.00322802
0.00322804
0.00322798
0.00322805
0.00322807
0.00322808
0.00322801
0.00322801
0.00322793
0.003228
0.00322807
0.00322802
0.00322805
0.00300998
0.00301002
0.00301007
0.00301009
0.00301003
0.00301003
0.00300998
0.00301002
0.00301009
0.00301013
0.00301005
0.00301
0.00300996
0.00301
0.00301005
0.00301013
0.00301009
0.00301002
0.00300998
0.00301003
0.00301003
0.00301009
0.00301007
0.00301002
0.00300998
0.00280679
0.00280684
0.00280672
0.00280667
0.00280679
0.00280678
0.00280674
0.00280669
0.0028067
0.00280673
0.00280671
0.00280678
0.0028068
0.00280678
0.00280671
0.00280673
0.0028067
0.00280669
0.00280674
0.00280678
0.00280679
0.00280667
0.00280672
0.00280684
0.00280679
0.00261705
0.00261696
0.00261697
0.00261699
0.00261701
0.00261703
0.00261696
0.00261702
0.00261699
0.00261703
0.00261696
0.00261693
0.00261702
0.00261693
0.00261696
0.00261703
0.00261699
0.00261702
0.00261696
0.00261703
0.00261701
0.00261699
0.00261697
0.00261696
0.00261705
0.00243998
0.00243999
0.00244007
0.0024401
0.00244011
0.00244006
0.00244007
0.00244014
0.00244008
0.00244
0.00244002
0.00244008
0.00244004
0.00244008
0.00244002
0.00244
0.00244008
0.00244014
0.00244007
0.00244006
0.00244011
0.0024401
0.00244007
0.00243999
0.00243998
0.0022749
0.00227495
0.00227489
0.00227487
0.00227482
0.00227483
0.00227486
0.00227482
0.00227485
0.00227486
0.00227492
0.00227485
0.00227486
0.00227485
0.00227492
0.00227486
0.00227485
0.00227482
0.00227486
0.00227483
0.00227482
0.00227487
0.00227489
0.00227495
0.0022749
0.00212088
0.00212085
0.00212082
0.00212083
0.0021208
0.00212082
0.00212086
0.00212093
0.00212089
0.0021208
0.00212087
0.00212082
0.00212091
0.00212082
0.00212087
0.0021208
0.00212089
0.00212093
0.00212086
0.00212082
0.0021208
0.00212083
0.00212082
0.00212085
0.00212088
0.00197709
0.00197712
0.0019772
0.00197723
0.00197716
0.00197717
0.00197716
0.00197716
0.00197707
0.0019772
0.0019772
0.00197709
0.00197717
0.00197709
0.0019772
0.0019772
0.00197707
0.00197716
0.00197716
0.00197717
0.00197716
0.00197723
0.0019772
0.00197712
0.00197709
0.00184311
0.00184308
0.00184303
0.00184297
0.00184301
0.00184313
0.00184309
0.00184305
0.001843
0.00184308
0.00184311
0.00184306
0.00184303
0.00184306
0.00184311
0.00184308
0.001843
0.00184305
0.00184309
0.00184313
0.00184301
0.00184297
0.00184303
0.00184308
0.00184311
0.00171799
0.00171796
0.00171799
0.00171804
0.00171801
0.00171795
0.00171795
0.00171802
0.00171802
0.001718
0.00171801
0.00171802
0.00171799
0.00171802
0.00171801
0.001718
0.00171802
0.00171802
0.00171795
0.00171795
0.00171801
0.00171804
0.00171799
0.00171796
0.00171799
0.00160138
0.00160142
0.00160137
0.00160135
0.00160135
0.00160136
0.00160133
0.00160133
0.00160128
0.00160137
0.00160136
0.00160134
0.00160131
0.00160134
0.00160136
0.00160137
0.00160128
0.00160133
0.00160133
0.00160136
0.00160135
0.00160135
0.00160137
0.00160142
0.00160138
0.00149249
0.00149249
0.00149255
0.00149254
0.00149252
0.00149254
0.00149246
0.00149253
0.00149255
0.0014925
0.00149244
0.00149261
0.00149262
0.00149261
0.00149244
0.0014925
0.00149255
0.00149253
0.00149246
0.00149254
0.00149252
0.00149254
0.00149255
0.00149249
0.00149249
0.00139103
0.00139101
0.00139101
0.00139103
0.00139106
0.00139107
0.001391
0.00139099
0.00139099
0.00139098
0.00139106
0.001391
0.00139096
0.001391
0.00139106
0.00139098
0.00139099
0.00139099
0.001391
0.00139107
0.00139106
0.00139103
0.00139101
0.00139101
0.00139103
0.0012963
0.00129631
0.00129633
0.00129629
0.00129625
0.00129633
0.00129633
0.00129635
0.00129634
0.00129629
0.00129633
0.0012963
0.00129629
0.0012963
0.00129633
0.00129629
0.00129634
0.00129635
0.00129633
0.00129633
0.00129625
0.00129629
0.00129633
0.00129631
0.0012963
0.00120799
0.00120799
0.00120798
0.00120801
0.00120803
0.00120804
0.00120806
0.00120808
0.00120807
0.001208
0.00120801
0.00120806
0.00120802
0.00120806
0.00120801
0.001208
0.00120807
0.00120808
0.00120806
0.00120804
0.00120803
0.00120801
0.00120798
0.00120799
0.00120799
0.00112569
0.00112568
0.00112565
0.00112562
0.00112567
0.00112568
0.0011256
0.00112562
0.00112565
0.00112563
0.00112563
0.00112565
0.00112556
0.00112565
0.00112563
0.00112563
0.00112565
0.00112562
0.0011256
0.00112568
0.00112567
0.00112562
0.00112565
0.00112568
0.00112569
0.00104883
0.00104882
0.00104883
0.00104885
0.0010488
0.0010488
0.0010488
0.00104889
0.00104882
0.00104882
0.00104883
0.00104887
0.0010489
0.00104887
0.00104883
0.00104882
0.00104882
0.00104889
0.0010488
0.0010488
0.0010488
0.00104885
0.00104883
0.00104882
0.00104883
0.000977189
0.000977186
0.000977161
0.000977187
0.000977199
0.000977209
0.000977141
0.000977186
0.00097717
0.000977198
0.000977178
0.000977194
0.000977156
0.000977194
0.000977178
0.000977198
0.00097717
0.000977186
0.000977141
0.000977209
0.000977199
0.000977187
0.000977161
0.000977186
0.000977189
0.000910372
0.000910376
0.000910365
0.000910372
0.000910373
0.000910375
0.000910368
0.000910359
0.000910329
0.000910365
0.000910362
0.000910344
0.000910337
0.000910344
0.000910362
0.000910365
0.000910329
0.000910359
0.000910368
0.000910375
0.000910373
0.000910372
0.000910365
0.000910376
0.000910372
0.000848002
0.000848021
0.000848032
0.000848029
0.00084804
0.000848068
0.000848018
0.000848037
0.000848056
0.00084804
0.000848066
0.000848029
0.000847996
0.000848029
0.000848066
0.00084804
0.000848056
0.000848037
0.000848018
0.000848068
0.00084804
0.000848029
0.000848032
0.000848021
0.000848002
0.000789945
0.000789934
0.000789938
0.000789974
0.00078997
0.000789893
0.000789934
0.000789985
0.000789939
0.000789939
0.000789954
0.000789963
0.000789953
0.000789963
0.000789954
0.000789939
0.000789939
0.000789985
0.000789934
0.000789893
0.00078997
0.000789974
0.000789938
0.000789934
0.000789945
0.00073574
0.000735743
0.000735746
0.000735714
0.000735707
0.000735724
0.000735734
0.00073575
0.00073571
0.000735699
0.000735765
0.000735754
0.00073571
0.000735754
0.000735765
0.000735699
0.00073571
0.00073575
0.000735734
0.000735724
0.000735707
0.000735714
0.000735746
0.000735743
0.00073574
0.000685236
0.000685218
0.000685222
0.000685212
0.00068522
0.000685234
0.000685237
0.000685229
0.000685227
0.000685224
0.000685208
0.00068522
0.000685231
0.00068522
0.000685208
0.000685224
0.000685227
0.000685229
0.000685237
0.000685234
0.00068522
0.000685212
0.000685222
0.000685218
0.000685236
0.000638097
0.000638109
0.000638114
0.000638105
0.000638125
0.000638079
0.000638098
0.000638123
0.000638109
0.000638094
0.000638109
0.000638083
0.000638068
0.000638083
0.000638109
0.000638094
0.000638109
0.000638123
0.000638098
0.000638079
0.000638125
0.000638105
0.000638114
0.000638109
0.000638097
0.000594165
0.000594166
0.000594151
0.000594182
0.000594159
0.000594173
0.00059417
0.000594142
0.00059414
0.000594165
0.000594177
0.000594191
0.000594236
0.000594191
0.000594177
0.000594165
0.00059414
0.000594142
0.00059417
0.000594173
0.000594159
0.000594182
0.000594151
0.000594166
0.000594165
0.000553214
0.000553238
0.000553248
0.000553214
0.000553235
0.000553217
0.000553202
0.000553204
0.000553189
0.000553215
0.0005532
0.00055319
0.000553187
0.00055319
0.0005532
0.000553215
0.000553189
0.000553204
0.000553202
0.000553217
0.000553235
0.000553214
0.000553248
0.000553238
0.000553214
0.000515029
0.000515017
0.000515012
0.000515001
0.000515006
0.000514997
0.000515042
0.000515052
0.000515035
0.000514995
0.000515031
0.000515049
0.000515033
0.000515049
0.000515031
0.000514995
0.000515035
0.000515052
0.000515042
0.000514997
0.000515006
0.000515001
0.000515012
0.000515017
0.000515029
0.000479417
0.000479405
0.000479423
0.00047944
0.000479431
0.000479422
0.000479424
0.000479397
0.000479419
0.00047942
0.000479428
0.000479413
0.0004794
0.000479413
0.000479428
0.00047942
0.000479419
0.000479397
0.000479424
0.000479422
0.000479431
0.00047944
0.000479423
0.000479405
0.000479417
0.000446255
0.000446271
0.000446228
0.000446214
0.000446237
0.000446263
0.000446263
0.000446252
0.000446249
0.00044625
0.000446264
0.00044626
0.000446266
0.00044626
0.000446264
0.00044625
0.000446249
0.000446252
0.000446263
0.000446263
0.000446237
0.000446214
0.000446228
0.000446271
0.000446255
0.000415305
0.000415288
0.000415286
0.000415307
0.000415309
0.000415286
0.000415277
0.000415296
0.000415283
0.000415286
0.000415333
0.000415292
0.000415298
0.000415292
0.000415333
0.000415286
0.000415283
0.000415296
0.000415277
0.000415286
0.000415309
0.000415307
0.000415286
0.000415288
0.000415305
0.000386465
0.000386451
0.000386488
0.000386487
0.000386477
0.000386474
0.000386496
0.000386492
0.00038647
0.000386457
0.000386468
0.000386485
0.000386467
0.000386485
0.000386468
0.000386457
0.00038647
0.000386492
0.000386496
0.000386474
0.000386477
0.000386487
0.000386488
0.000386451
0.000386465
0.000359582
0.000359602
0.000359591
0.000359579
0.000359593
0.000359591
0.000359601
0.000359574
0.000359578
0.000359618
0.000359615
0.000359596
0.000359585
0.000359596
0.000359615
0.000359618
0.000359578
0.000359574
0.000359601
0.000359591
0.000359593
0.000359579
0.000359591
0.000359602
0.000359582
0.000334537
0.000334512
0.00033454
0.000334549
0.000334536
0.000334521
0.00033452
0.000334529
0.000334564
0.000334548
0.000334533
0.000334538
0.000334535
0.000334538
0.000334533
0.000334548
0.000334564
0.000334529
0.00033452
0.000334521
0.000334536
0.000334549
0.00033454
0.000334512
0.000334537
0.000311196
0.000311232
0.000311221
0.000311206
0.000311193
0.000311205
0.000311222
0.000311199
0.00031119
0.00031118
0.00031117
0.000311184
0.000311194
0.000311184
0.00031117
0.00031118
0.00031119
0.000311199
0.000311222
0.000311205
0.000311193
0.000311206
0.000311221
0.000311232
0.000311196
0.000289431
0.000289427
0.000289408
0.000289399
0.000289425
0.000289432
0.000289416
0.000289436
0.000289429
0.000289408
0.00028942
0.00028944
0.00028943
0.00028944
0.00028942
0.000289408
0.000289429
0.000289436
0.000289416
0.000289432
0.000289425
0.000289399
0.000289408
0.000289427
0.000289431
0.000269173
0.000269155
0.000269155
0.000269178
0.000269173
0.000269185
0.000269175
0.000269149
0.000269154
0.000269192
0.000269184
0.000269192
0.00026915
0.000269192
0.000269184
0.000269192
0.000269154
0.000269149
0.000269175
0.000269185
0.000269173
0.000269178
0.000269155
0.000269155
0.000269173
0.000250261
0.000250277
0.000250278
0.000250288
0.000250278
0.000250258
0.000250251
0.000250276
0.000250278
0.000250264
0.000250254
0.000250279
0.000250258
0.000250279
0.000250254
0.000250264
0.000250278
0.000250276
0.000250251
0.000250258
0.000250278
0.000250288
0.000250278
0.000250277
0.000250261
0.000232683
0.000232664
0.00023267
0.000232666
0.000232666
0.000232674
0.000232686
0.000232678
0.000232681
0.000232668
0.000232666
0.000232673
0.000232668
0.000232673
0.000232666
0.000232668
0.000232681
0.000232678
0.000232686
0.000232674
0.000232666
0.000232666
0.00023267
0.000232664
0.000232683
0.000216249
0.000216265
0.000216275
0.000216262
0.000216252
0.000216261
0.000216288
0.000216281
0.00021628
0.00021627
0.000216278
0.000216279
0.000216273
0.000216279
0.000216278
0.00021627
0.00021628
0.000216281
0.000216288
0.000216261
0.000216252
0.000216262
0.000216275
0.000216265
0.000216249
0.000200997
0.000201005
0.000200995
0.000200985
0.000201005
0.000200997
0.000200982
0.000200978
0.000200999
0.000200994
0.000200993
0.000200997
0.000200996
0.000200997
0.000200993
0.000200994
0.000200999
0.000200978
0.000200982
0.000200997
0.000201005
0.000200985
0.000200995
0.000201005
0.000200997
0.000186773
0.000186775
0.000186771
0.000186782
0.000186777
0.000186776
0.000186776
0.000186759
0.000186764
0.000186758
0.000186769
0.000186764
0.000186765
0.000186764
0.000186769
0.000186758
0.000186764
0.000186759
0.000186776
0.000186776
0.000186777
0.000186782
0.000186771
0.000186775
0.000186773
0.000173516
0.000173511
0.000173499
0.000173494
0.000173506
0.000173499
0.000173489
0.000173516
0.000173518
0.000173503
0.000173512
0.000173507
0.000173507
0.000173507
0.000173512
0.000173503
0.000173518
0.000173516
0.000173489
0.000173499
0.000173506
0.000173494
0.000173499
0.000173511
0.000173516
0.000161168
0.00016116
0.000161174
0.000161174
0.000161172
0.000161158
0.000161166
0.000161168
0.000161155
0.00016116
0.000161162
0.000161162
0.000161163
0.000161162
0.000161162
0.00016116
0.000161155
0.000161168
0.000161166
0.000161158
0.000161172
0.000161174
0.000161174
0.00016116
0.000161168
0.000149675
0.000149663
0.000149656
0.000149659
0.000149664
0.000149666
0.000149674
0.000149668
0.000149666
0.000149667
0.000149667
0.000149666
0.000149665
0.000149666
0.000149667
0.000149667
0.000149666
0.000149668
0.000149674
0.000149666
0.000149664
0.000149659
0.000149656
0.000149663
0.000149675
0.000138935
0.000138952
0.000138959
0.000138956
0.000138961
0.000138951
0.00013896
0.00013896
0.000138959
0.000138959
0.000138959
0.000138959
0.000138958
0.000138959
0.000138959
0.000138959
0.000138959
0.00013896
0.00013896
0.000138951
0.000138961
0.000138956
0.000138959
0.000138952
0.000138935
0.000128999
0.000128993
0.000128994
0.00012899
0.00012899
0.000128989
0.000128988
0.000128989
0.000128988
0.000128989
0.00012899
0.00012899
0.000128992
0.00012899
0.00012899
0.000128989
0.000128988
0.000128989
0.000128988
0.000128989
0.00012899
0.00012899
0.000128994
0.000128993
0.000128999
0.000119708
0.000119707
0.000119709
0.000119709
0.000119708
0.000119708
0.000119708
0.00011971
0.00011971
0.000119707
0.000119708
0.000119706
0.000119708
0.000119706
0.000119708
0.000119707
0.00011971
0.00011971
0.000119708
0.000119708
0.000119708
0.000119709
0.000119709
0.000119707
0.000119708
0.000111067
0.000111068
0.000111068
0.000111067
0.000111068
0.000111067
0.000111067
0.000111067
0.000111066
0.000111066
0.000111069
0.000111067
0.000111066
0.000111067
0.000111069
0.000111066
0.000111066
0.000111067
0.000111067
0.000111067
0.000111068
0.000111067
0.000111068
0.000111068
0.000111067
0.000103024
0.000103024
0.000103023
0.000103024
0.000103025
0.000103024
0.000103023
0.000103024
0.000103024
0.000103025
0.000103025
0.000103024
0.000103024
0.000103024
0.000103025
0.000103025
0.000103024
0.000103024
0.000103023
0.000103024
0.000103025
0.000103024
0.000103023
0.000103024
0.000103024
9.5538e-05
9.55384e-05
9.554e-05
9.55382e-05
9.55378e-05
9.55387e-05
9.55379e-05
9.55388e-05
9.55381e-05
9.55393e-05
9.5537e-05
9.55393e-05
9.55393e-05
9.55393e-05
9.5537e-05
9.55393e-05
9.55381e-05
9.55388e-05
9.55379e-05
9.55387e-05
9.55378e-05
9.55382e-05
9.554e-05
9.55384e-05
9.5538e-05
8.85706e-05
8.85698e-05
8.85694e-05
8.85702e-05
8.8571e-05
8.85724e-05
8.85703e-05
8.8573e-05
8.85713e-05
8.85712e-05
8.85714e-05
8.85724e-05
8.8571e-05
8.85724e-05
8.85714e-05
8.85712e-05
8.85713e-05
8.8573e-05
8.85703e-05
8.85724e-05
8.8571e-05
8.85702e-05
8.85694e-05
8.85698e-05
8.85706e-05
8.20886e-05
8.20892e-05
8.20896e-05
8.20888e-05
8.2089e-05
8.20878e-05
8.20868e-05
8.20886e-05
8.20882e-05
8.209e-05
8.20872e-05
8.20875e-05
8.20905e-05
8.20875e-05
8.20872e-05
8.209e-05
8.20882e-05
8.20886e-05
8.20868e-05
8.20878e-05
8.2089e-05
8.20888e-05
8.20896e-05
8.20892e-05
8.20886e-05
7.60576e-05
7.60573e-05
7.60572e-05
7.6056e-05
7.60574e-05
7.60569e-05
7.60567e-05
7.60562e-05
7.60556e-05
7.6057e-05
7.60571e-05
7.60566e-05
7.60548e-05
7.60566e-05
7.60571e-05
7.6057e-05
7.60556e-05
7.60562e-05
7.60567e-05
7.60569e-05
7.60574e-05
7.6056e-05
7.60572e-05
7.60573e-05
7.60576e-05
7.04452e-05
7.04455e-05
7.04464e-05
7.04454e-05
7.04448e-05
7.0445e-05
7.04461e-05
7.04461e-05
7.04456e-05
7.04444e-05
7.04458e-05
7.04449e-05
7.04445e-05
7.04449e-05
7.04458e-05
7.04444e-05
7.04456e-05
7.04461e-05
7.04461e-05
7.0445e-05
7.04448e-05
7.04454e-05
7.04464e-05
7.04455e-05
7.04452e-05
6.52259e-05
6.5226e-05
6.52258e-05
6.52267e-05
6.52268e-05
6.52267e-05
6.52271e-05
6.5226e-05
6.52271e-05
6.52261e-05
6.52276e-05
6.52273e-05
6.52258e-05
6.52273e-05
6.52276e-05
6.52261e-05
6.52271e-05
6.5226e-05
6.52271e-05
6.52267e-05
6.52268e-05
6.52267e-05
6.52258e-05
6.5226e-05
6.52259e-05
6.03722e-05
6.03724e-05
6.03711e-05
6.03717e-05
6.03705e-05
6.0373e-05
6.03726e-05
6.03715e-05
6.03715e-05
6.03713e-05
6.03716e-05
6.03721e-05
6.03708e-05
6.03721e-05
6.03716e-05
6.03713e-05
6.03715e-05
6.03715e-05
6.03726e-05
6.0373e-05
6.03705e-05
6.03717e-05
6.03711e-05
6.03724e-05
6.03722e-05
5.58577e-05
5.58572e-05
5.58581e-05
5.58586e-05
5.58581e-05
5.58585e-05
5.5858e-05
5.58582e-05
5.58578e-05
5.58579e-05
5.58571e-05
5.58577e-05
5.58582e-05
5.58577e-05
5.58571e-05
5.58579e-05
5.58578e-05
5.58582e-05
5.5858e-05
5.58585e-05
5.58581e-05
5.58586e-05
5.58581e-05
5.58572e-05
5.58577e-05
5.16614e-05
5.16614e-05
5.16616e-05
5.16607e-05
5.16606e-05
5.16612e-05
5.16604e-05
5.16615e-05
5.16603e-05
5.1661e-05
5.16625e-05
5.16614e-05
5.16609e-05
5.16614e-05
5.16625e-05
5.1661e-05
5.16603e-05
5.16615e-05
5.16604e-05
5.16612e-05
5.16606e-05
5.16607e-05
5.16616e-05
5.16614e-05
5.16614e-05
4.77591e-05
4.77597e-05
4.77598e-05
4.77591e-05
4.77587e-05
4.77589e-05
4.77591e-05
4.77586e-05
4.7758e-05
4.77598e-05
4.77595e-05
4.77586e-05
4.77575e-05
4.77586e-05
4.77595e-05
4.77598e-05
4.7758e-05
4.77586e-05
4.77591e-05
4.77589e-05
4.77587e-05
4.77591e-05
4.77598e-05
4.77597e-05
4.77591e-05
4.41333e-05
4.41322e-05
4.41328e-05
4.41327e-05
4.4133e-05
4.41326e-05
4.41328e-05
4.41329e-05
4.41332e-05
4.41331e-05
4.41322e-05
4.41332e-05
4.41332e-05
4.41332e-05
4.41322e-05
4.41331e-05
4.41332e-05
4.41329e-05
4.41328e-05
4.41326e-05
4.4133e-05
4.41327e-05
4.41328e-05
4.41322e-05
4.41333e-05
4.07628e-05
4.07628e-05
4.07629e-05
4.07623e-05
4.07627e-05
4.07627e-05
4.0764e-05
4.0763e-05
4.07624e-05
4.07618e-05
4.07636e-05
4.07638e-05
4.07642e-05
4.07638e-05
4.07636e-05
4.07618e-05
4.07624e-05
4.0763e-05
4.0764e-05
4.07627e-05
4.07627e-05
4.07623e-05
4.07629e-05
4.07628e-05
4.07628e-05
3.76317e-05
3.76321e-05
3.76319e-05
3.76311e-05
3.76318e-05
3.76319e-05
3.7631e-05
3.76307e-05
3.7632e-05
3.76329e-05
3.76309e-05
3.76312e-05
3.76312e-05
3.76312e-05
3.76309e-05
3.76329e-05
3.7632e-05
3.76307e-05
3.7631e-05
3.76319e-05
3.76318e-05
3.76311e-05
3.76319e-05
3.76321e-05
3.76317e-05
0.0420974
0.0420967
0.0420949
0.0420963
0.0420962
0.0420926
0.0420939
0.0420957
0.0420949
0.0420973
0.0420981
0.0420972
0.0420998
0.0420972
0.0420981
0.0420973
0.0420949
0.0420957
0.0420939
0.0420926
0.0420962
0.0420963
0.0420949
0.0420967
0.0420974
0.0392832
0.039286
0.0392848
0.0392827
0.0392848
0.0392865
0.0392865
0.039284
0.0392838
0.0392853
0.0392806
0.0392817
0.0392883
0.0392817
0.0392806
0.0392853
0.0392838
0.039284
0.0392865
0.0392865
0.0392848
0.0392827
0.0392848
0.039286
0.0392832
0.0366606
0.0366611
0.0366642
0.0366637
0.0366614
0.0366607
0.0366626
0.0366627
0.0366633
0.0366637
0.0366632
0.0366608
0.0366597
0.0366608
0.0366632
0.0366637
0.0366633
0.0366627
0.0366626
0.0366607
0.0366614
0.0366637
0.0366642
0.0366611
0.0366606
0.0342152
0.0342139
0.0342101
0.0342126
0.0342157
0.0342147
0.0342134
0.0342134
0.0342128
0.0342136
0.0342131
0.0342144
0.0342144
0.0342144
0.0342131
0.0342136
0.0342128
0.0342134
0.0342134
0.0342147
0.0342157
0.0342126
0.0342101
0.0342139
0.0342152
0.0319287
0.0319283
0.0319295
0.0319296
0.0319286
0.0319272
0.0319273
0.0319267
0.0319277
0.0319268
0.0319274
0.031931
0.0319276
0.031931
0.0319274
0.0319268
0.0319277
0.0319267
0.0319273
0.0319272
0.0319286
0.0319296
0.0319295
0.0319283
0.0319287
0.0297944
0.0297925
0.0297935
0.0297938
0.0297923
0.0297941
0.0297956
0.0297933
0.0297925
0.0297928
0.0297951
0.0297935
0.0297914
0.0297935
0.0297951
0.0297928
0.0297925
0.0297933
0.0297956
0.0297941
0.0297923
0.0297938
0.0297935
0.0297925
0.0297944
0.0278034
0.0278054
0.0278034
0.0278025
0.0278034
0.0278044
0.0278048
0.0278064
0.0278055
0.0278045
0.0278048
0.0278043